
include ${pot}.lmp
include kalj.lmp
units lj
atom_style atomic

variable dimensions equal 3
variable density equal 1.2
variable fraca equal 0.8

dimension ${dimensions}
dimension 3
read_restart ${prevbasename}.final.lmprestart.${steps}
read_restart equil/kalj_T0.6_n360_v300_1000000_1.final.lmprestart.${steps}
read_restart equil/kalj_T0.6_n360_v300_1000000_1.final.lmprestart.1000000
Reading restart file ...
  restart file = 15 Sep 2022, LAMMPS = 15 Sep 2022
WARNING: Restart file used different # of processors: 16 vs. 32 (src/read_restart.cpp:659)
  restoring atom style atomic from restart
  orthogonal box = (0 0 0) to (6.6943295 6.6943295 6.6943295)
  2 by 4 by 4 MPI processor grid
  restoring pair style lj/cut from restart
  360 atoms
  read_restart CPU = 0.029 seconds
include ${pot}_particles.lmp
include kalj_particles.lmp
mass * 1.0 #  set mass 1.0 for all types

pair_style lj/cut 2.5
#pair coeffs type1 type2 eps sigma
pair_coeff 1 1 1.0 1.00 2.5
pair_coeff 1 2 1.5 0.80 2.0
pair_coeff 2 2 0.5 0.88 2.2
pair_modify shift yes
reset_timestep 0

print "Setting up equilibration run"
Setting up equilibration run
variable dumptime2 equal ${steps}/2000
variable dumptime2 equal 1000000/2000
dump 1 all dcd ${dumptime2} ${basename}.unwrap.dcd
dump 1 all dcd 500 ${basename}.unwrap.dcd
dump 1 all dcd 500 prod/kalj_T0.6_n360_v300_prod_1000000_1.unwrap.dcd
#dump 2 all dcd ${dumptime2} ${basename}.dcd
dump_modify 1 unwrap yes
#dump_modify 2 unwrap no

restart ${restarttime} ${basename}.restart
restart 1000000 ${basename}.restart
restart 1000000 prod/kalj_T0.6_n360_v300_prod_1000000_1.restart
restart ${steps} ${basename}.final.lmprestart
restart 1000000 ${basename}.final.lmprestart
restart 1000000 prod/kalj_T0.6_n360_v300_prod_1000000_1.final.lmprestart

thermo ${thermotime}
thermo 50000
timestep ${timestep}
timestep 0.003

neighbor 0.5 bin
neigh_modify every 1 delay ${neighborstep} check yes
neigh_modify every 1 delay 25 check yes

#velocity all create ${temp} ${id} dist gaussian
fix 1 all nvt temp ${temp} ${temp} ${taut}
fix 1 all nvt temp 0.6 ${temp} ${taut}
fix 1 all nvt temp 0.6 0.6 ${taut}
fix 1 all nvt temp 0.6 0.6 0.3
Resetting global fix info from restart file:
  fix style: nvt, fix ID: 1

variable steps4 equal ${steps}/4
variable steps4 equal 1000000/4
run ${steps4}
run 250000
Generated 0 of 1 mixed pair_coeff terms from geometric mixing rule
All restart file global fix info was re-assigned
Neighbor list info ...
  update: every = 1 steps, delay = 25 steps, check = yes
  max neighbors/atom: 2000, page size: 100000
  master list distance cutoff = 3
  ghost atom cutoff = 3
  binsize = 1.5, bins = 5 5 5
  1 neighbor lists, perpetual/occasional/extra = 1 0 0
  (1) pair lj/cut, perpetual
      attributes: half, newton on
      pair build: half/bin/atomonly/newton
      stencil: half/bin/3d
      bin: standard
Per MPI rank memory allocation (min/avg/max) = 3.099 | 3.099 | 3.099 Mbytes
   Step          Temp          E_pair         E_mol          TotEng         Press     
         0   0.67525676    -6.6214406      0             -5.611369       5.7163398    
     50000   0.61912164    -6.698488       0             -5.7723852      5.4731607    
    100000   0.64691326    -6.6267512      0             -5.6590768      5.6997376    
    150000   0.62673204    -6.6838609      0             -5.7463742      5.3975752    
    200000   0.61995802    -6.6487871      0             -5.7214332      5.4908966    
    250000   0.61612617    -6.704054       0             -5.7824319      5.1142951    
Loop time of 13.6765 on 32 procs for 250000 steps with 360 atoms

Performance: 4738038.325 tau/day, 18279.469 timesteps/s, 6.581 Matom-step/s
99.6% CPU use with 32 MPI tasks x 1 OpenMP threads

MPI task timing breakdown:
Section |  min time  |  avg time  |  max time  |%varavg| %total
---------------------------------------------------------------
Pair    | 1.1597     | 1.2684     | 1.4253     |   6.6 |  9.27
Neigh   | 0.18476    | 0.20063    | 0.22161    |   2.5 |  1.47
Comm    | 9.035      | 10.015     | 11.12      |  18.4 | 73.23
Output  | 0.067188   | 0.089733   | 0.11637    |   4.5 |  0.66
Modify  | 0.70146    | 1.7882     | 2.6445     |  41.1 | 13.07
Other   |            | 0.3141     |            |       |  2.30

Nlocal:          11.25 ave          15 max           9 min
Histogram: 3 5 0 11 0 10 1 0 1 1
Nghost:        652.562 ave         663 max         645 min
Histogram: 5 2 7 1 3 5 2 2 4 1
Neighs:        648.844 ave         821 max         515 min
Histogram: 5 2 4 4 5 1 6 2 1 2

Total # of neighbors = 20763
Ave neighs/atom = 57.675
Neighbor list builds = 7479
Dangerous builds = 134
Total wall time: 0:00:13
