
include ${pot}.lmp
include kalj.lmp
units lj
atom_style atomic

variable dimensions equal 3
variable density equal 1.2
variable fraca equal 0.8

dimension ${dimensions}
dimension 3
read_restart ${prevbasename}.final.lmprestart.${steps}
read_restart equil/kalj_T0.65_n360_v300_350000_1.final.lmprestart.${steps}
read_restart equil/kalj_T0.65_n360_v300_350000_1.final.lmprestart.350000
Reading restart file ...
  restart file = 15 Sep 2022, LAMMPS = 15 Sep 2022
WARNING: Restart file used different # of processors: 16 vs. 32 (src/read_restart.cpp:659)
  restoring atom style atomic from restart
  orthogonal box = (0 0 0) to (6.6943295 6.6943295 6.6943295)
  2 by 4 by 4 MPI processor grid
  restoring pair style lj/cut from restart
  360 atoms
  read_restart CPU = 0.059 seconds
include ${pot}_particles.lmp
include kalj_particles.lmp
mass * 1.0 #  set mass 1.0 for all types

pair_style lj/cut 2.5
#pair coeffs type1 type2 eps sigma
pair_coeff 1 1 1.0 1.00 2.5
pair_coeff 1 2 1.5 0.80 2.0
pair_coeff 2 2 0.5 0.88 2.2
pair_modify shift yes
reset_timestep 0

print "Setting up equilibration run"
Setting up equilibration run
variable dumptime2 equal ${steps}/2000
variable dumptime2 equal 350000/2000
dump 1 all dcd ${dumptime2} ${basename}.unwrap.dcd
dump 1 all dcd 175 ${basename}.unwrap.dcd
dump 1 all dcd 175 prod/kalj_T0.65_n360_v300_prod_350000_1.unwrap.dcd
#dump 2 all dcd ${dumptime2} ${basename}.dcd
dump_modify 1 unwrap yes
#dump_modify 2 unwrap no

restart ${restarttime} ${basename}.restart
restart 350000 ${basename}.restart
restart 350000 prod/kalj_T0.65_n360_v300_prod_350000_1.restart
restart ${steps} ${basename}.final.lmprestart
restart 350000 ${basename}.final.lmprestart
restart 350000 prod/kalj_T0.65_n360_v300_prod_350000_1.final.lmprestart

thermo ${thermotime}
thermo 70000
timestep ${timestep}
timestep 0.003

neighbor 0.5 bin
neigh_modify every 1 delay ${neighborstep} check yes
neigh_modify every 1 delay 25 check yes

#velocity all create ${temp} ${id} dist gaussian
fix 1 all nvt temp ${temp} ${temp} ${taut}
fix 1 all nvt temp 0.65 ${temp} ${taut}
fix 1 all nvt temp 0.65 0.65 ${taut}
fix 1 all nvt temp 0.65 0.65 0.3
Resetting global fix info from restart file:
  fix style: nvt, fix ID: 1

variable steps4 equal ${steps}/4
variable steps4 equal 350000/4
run ${steps4}
run 87500
Generated 0 of 1 mixed pair_coeff terms from geometric mixing rule
All restart file global fix info was re-assigned
Neighbor list info ...
  update: every = 1 steps, delay = 25 steps, check = yes
  max neighbors/atom: 2000, page size: 100000
  master list distance cutoff = 3
  ghost atom cutoff = 3
  binsize = 1.5, bins = 5 5 5
  1 neighbor lists, perpetual/occasional/extra = 1 0 0
  (1) pair lj/cut, perpetual
      attributes: half, newton on
      pair build: half/bin/atomonly/newton
      stencil: half/bin/3d
      bin: standard
Per MPI rank memory allocation (min/avg/max) = 3.099 | 3.099 | 3.099 Mbytes
   Step          Temp          E_pair         E_mol          TotEng         Press     
         0   0.68847779    -6.578279       0             -5.5484309      5.9990026    
     70000   0.66992791    -6.6829864      0             -5.6808859      5.4231701    
     87500   0.66574633    -6.6850966      0             -5.689251       5.2915482    
Loop time of 4.85427 on 32 procs for 87500 steps with 360 atoms

Performance: 4672176.115 tau/day, 18025.371 timesteps/s, 6.489 Matom-step/s
99.6% CPU use with 32 MPI tasks x 1 OpenMP threads

MPI task timing breakdown:
Section |  min time  |  avg time  |  max time  |%varavg| %total
---------------------------------------------------------------
Pair    | 0.39267    | 0.45056    | 0.53907    |   5.4 |  9.28
Neigh   | 0.066136   | 0.074546   | 0.085607   |   2.1 |  1.54
Comm    | 3.1993     | 3.5491     | 3.9496     |  11.0 | 73.11
Output  | 0.029875   | 0.051681   | 0.07744    |   5.7 |  1.06
Modify  | 0.24242    | 0.62396    | 0.89209    |  23.6 | 12.85
Other   |            | 0.1044     |            |       |  2.15

Nlocal:          11.25 ave          14 max           9 min
Histogram: 4 0 7 0 7 0 8 0 3 3
Nghost:        643.156 ave         656 max         633 min
Histogram: 3 7 1 4 3 4 5 1 1 3
Neighs:        651.406 ave         797 max         513 min
Histogram: 2 4 3 1 7 5 4 1 2 3

Total # of neighbors = 20845
Ave neighs/atom = 57.902778
Neighbor list builds = 2753
Dangerous builds = 106
Total wall time: 0:00:04
