
Host: cs017.hpc.nyu.edu

Timers On : Thu Nov  7 14:53:38 2024
Timers Off: Thu Nov  7 14:53:38 2024

Wall Time:        0.34 seconds

                                                       Time (seconds)
Module                                       User      System        Wall        Calls

--------------------------------------------------------------------------------------

**************************************************************************************
