     193
 i =        0, time =        0.000, E =     -1102.9894521604
  O         3.8585873763       -4.7533175213        5.5091974759
  H         4.2109950951       -5.5568705259        5.9994585948
  H         3.0947084560       -4.3172663108        5.9135950646
  O        -3.5460761891        1.7456237131        4.2880212708
  H        -3.3572582677        0.8369944362        4.1529456220
  H        -3.6089143450        1.9436976972        5.2698392012
  O         4.5691359319        2.9343274990       -7.0999718127
  H         3.6785962350        3.2291072409       -6.8049831901
  H         4.4953665356        2.7845914189       -8.0458027314
  O        -2.5731801314       -0.1063102257       -3.4147140374
  H        -2.0386687011        0.4155234251       -2.8289645480
  H        -1.8891606976       -0.6148201666       -3.9280631618
  O        -3.7625034284       -7.7105940327        5.6279977389
  H        -4.6343536576       -7.4199803039        5.9874790347
  H        -3.8520633915       -7.6348492192        4.6607806353
  O        -6.7131259426       -0.0759204976        2.3176844292
  H        -6.0415850051       -0.4560400697        3.0079983076
  H        -6.2582643134        0.7343068494        1.9582947358
  O         4.0109535867       -5.5817692668       -0.4126912859
  H         3.3321311866       -5.6166906662        0.3076935926
  H         3.9051538355       -4.7533442556       -0.8369521875
  O        -2.6692626967       -3.0810510613       -1.2259349448
  H        -3.2486322997       -2.4491708867       -1.7386930105
  H        -2.1918958173       -2.5988518360       -0.5763067756
  O         5.4576244064       -3.1688044689        3.1002596795
  H         4.6854987571       -3.2457995297        3.6224179934
  H         5.2579372917       -3.0507495002        2.1311396222
  O         2.0078792352        3.8025888294       -6.6441198936
  H         1.3809036112        3.0702729257       -6.8038689306
  H         1.8366067800        4.0666291804       -5.7099975874
  O         4.0608830110       -3.8929207302       -3.0596772434
  H         3.2332712864       -3.7206669725       -3.6953758544
  H         4.3366899606       -2.9825098616       -2.9848217710
  O         1.9773593054       -1.8442291306        1.0225667179
  H         1.5650644885       -2.4713604568        1.6495937537
  H         1.6194813185       -1.9133123969        0.0656946095
  O         0.7338447631       -5.7432877136       -5.0100685957
  H         1.4795768454       -6.3299226862       -4.8189325814
  H         0.4491149358       -5.7095685669       -5.9473559749
  O        -7.5166459589       -8.6781062088       -3.2371569882
  H        -7.8737663294       -9.6027219294       -3.0814153209
  H        -7.1323941392       -8.5788960418       -2.3467663280
  O         3.0089956358       -1.6206934676        5.1704516391
  H         3.8547864750       -1.8022862145        5.6866350548
  H         3.1700832113       -0.8185381416        4.6102432456
  O        -0.0943492744        1.8634710749       -6.6861347029
  H         0.2389831969        1.0552334471       -6.3170377387
  H        -0.0534604238        1.7370469556       -7.6527831571
  O         1.3803001006       -3.0815472275        3.6598466091
  H         2.0052752091       -2.6793618758        4.3169228939
  H         1.0973942250       -3.9666380514        3.9813401483
  O        -2.3279129364        2.8060791527        2.2347417439
  H        -1.6230445751        2.1315230876        2.1866163236
  H        -2.7609234795        2.5819568350        3.0889511952
  O         0.8745131234       -0.6611187482       -5.6004046460
  H         1.7204015713       -0.8189656405       -6.1098612966
  H         1.1964117837       -0.2405057963       -4.7549061774
  O        -1.1866462102       -0.7164030048        0.2437849238
  H        -1.1340006348        0.2325710411       -0.0726156939
  H        -0.9335438317       -0.7854778370        1.2011335414
  O        -3.8861935106       -9.0129285534       -3.1318571683
  H        -4.4983492231       -8.2801255892       -3.2160220896
  H        -2.9183857578       -8.7301395642       -3.1224505015
  O         4.9784414381        4.5574106629        2.1605978288
  H         4.5742506248        4.0690251974        1.4375040342
  H         4.2106782789        4.9079438424        2.6736093641
  O         4.2074812608        1.0294752439       -3.2134938111
  H         4.6250866171        0.8524308220       -4.0648666086
  H         4.4221519308        0.1920392568       -2.7364360799
  O        -5.2106345443       -6.3463699492       -2.6806456410
  H        -5.3801630197       -6.0861826108       -1.7737611737
  H        -5.9985546753       -6.0894306119       -3.1521879087
  O         4.8272006144       -2.1493089974        0.6957555837
  H         5.1698114049       -1.3843105780        1.1680731517
  H         3.8731403616       -2.0152767607        0.7901517878
  O         2.1084974235        0.9406557281        1.6964699575
  H         2.7635704789        1.5106519967        1.2582480434
  H         2.3138417141        0.0791504768        1.2943222699
  O        -5.7579045611       -5.0935991816       -0.3613728277
  H        -6.6922016300       -5.4438912590       -0.2434456391
  H        -5.9339541154       -4.1852263482       -0.6893230982
  O        -4.8501183696        4.6347512586        2.6323657871
  H        -5.8186923573        4.7291496971        2.3648078237
  H        -4.7686962808        3.6685062675        2.2489112658
  O         5.5123889390        0.8523825517       -5.5927914459
  H         6.4009274201        1.1961666201       -5.3454982775
  H         5.0326268549        1.4571097750       -6.2820870000
  H         1.7365184732       -0.9176950430       -0.2724577473
  O         0.7365184732       -1.9176950430       -1.2724577473
  H         0.4366627686       -2.6685959517       -1.8452499204
  H        -0.0280723827       -1.6346960324       -0.7323636982
  O         3.9005939808        2.6221972296        0.0824981180
  H         4.6603628952        2.4136405159       -0.4885023274
  H         3.3619307241        3.2465911837       -0.4599512808
  O        -1.0991624885       -1.3693412589        2.9498880034
  H        -0.3354058556       -2.0369012425        3.1075024163
  H        -1.8473458549       -1.9916364646        3.2032143743
  O         2.0718451094       -5.6501678174        1.3629079156
  H         1.2043618452       -6.1369822674        1.2560686630
  H         2.4507495844       -5.8859092245        2.2558212721
  O        -0.6280310316       -3.8273493362       -2.8460859716
  H        -1.5583639221       -3.7769636412       -2.5811140145
  H        -0.5112292363       -4.5879523025       -3.3982225959
  O        -5.2918433010        2.0621670074        1.4353011132
  H        -4.4549447831        1.8776050679        1.9014549175
  H        -5.1335936869        1.9198214761        0.4197228743
  O         1.9599719653       -3.4245632717       -5.2673604360
  H         1.3225562775       -4.2123092010       -5.0388832852
  H         1.2999292168       -2.7711468268       -5.4986783863
  O        -1.1933205846        3.9368513830       -3.3737465077
  H        -1.2003012694        3.9803649971       -4.3582935942
  H        -0.7402505311        4.6500956055       -2.9405594580
  O        -5.4243979802       -5.0029807582        4.2784625506
  H        -6.1164034705       -4.5127003053        3.7817315683
  H        -4.7403199519       -5.3498607764        3.6920944114
  O         2.9732984993        5.7937546317        3.6041830736
  H         3.4176710045        6.4726708296        4.1695014822
  H         2.4485201643        5.2041088060        4.2250869218
  O        -4.0511295134        1.5445925671       -5.0626498585
  H        -3.5387103609        0.7974835831       -4.6210546124
  H        -4.0333821170        2.3518494025       -4.4301366268
  O         3.4847726839        0.5997692637        4.0091486817
  H         2.7896502362        0.5375110591        3.2686671028
  H         4.3189983631        0.4153324309        3.4395276451
  O        -4.6207476869       -1.0117618538        4.0048952776
  H        -5.3477593066       -1.2443059233        4.6253237945
  H        -4.2163881176       -1.8844792105        3.8428058821
  O        -0.2165387154        1.2751467697        3.1167167744
  H         0.6371782887        1.4136801810        2.7286969429
  H        -0.3894124526        0.3225841245        3.0508790291
  O        -1.9915351632        5.0697083632        0.6000194332
  H        -2.3376502958        4.2340876605        1.0013898546
  H        -2.6520248188        5.7471163392        0.8506616742
  O        -1.3075474036       -1.8956122645       -4.9542920356
  H        -0.8701251561       -2.4028189929       -4.2563741889
  H        -0.5949693850       -1.3532124979       -5.4532434800
  O        -5.1373452268        1.8062068789       -1.2867681226
  H        -4.6981592560        2.4597481938       -1.8505668997
  H        -5.4245526684        1.1256927260       -1.8633945543
  O        -7.3836561358       -1.2119873462       -1.9506599575
  H        -6.4212881329       -1.0371432188       -2.1463799566
  H        -7.4808782211       -1.5310477918       -1.0339482458
  O        -0.4639445925        1.4048471789       -1.7228637494
  H        -0.7867348868        2.1866499220       -2.1962304023
  H         0.2743927320        0.9864157199       -2.2215845685
  O        -0.0298107043       -6.5210921839       -1.0933643185
  H         0.0021424143       -5.5311453888       -1.1226646288
  H        -0.8031132631       -6.7435142146       -0.4648562320
  O         5.7090935537       -1.6927086580        6.0185486672
  H         6.0227718591       -2.5102376528        6.4195407580
  H         5.6793497711       -0.9012395738        6.6521961143
  O        -2.5962982991       -5.7683972037       -4.2195771395
  H        -2.6049028140       -6.7077669400       -4.4728336739
  H        -3.4354537463       -5.5645841736       -3.8483514813
  O        -4.9449687319       -1.4086720170       -3.2473392351
  H        -4.8913021653       -2.2217322989       -3.7674224672
  H        -3.9689548003       -1.0964857745       -3.2341980948
  O         2.2983754229       -8.0809494482       -1.2132412662
  H         1.3003681505       -8.0636283692       -1.1143923954
  H         2.5161940132       -7.1053673603       -1.1768519202
  O         6.7754357543       -3.8965331032       -5.3359261145
  H         7.5499418595       -4.1003001805       -5.8213622687
  H         6.0430158524       -4.4328146397       -5.6479610986
  O        -0.3424844631        4.9658112476        2.9508285728
  H        -0.6418240309        4.1672557959        3.4716379980
  H        -0.6759740908        4.8699377537        2.0551376194
  O        -2.8056288807       -4.0048234272        6.2239057927
  H        -2.3850599469       -4.6322887909        6.8455564859
  H        -2.3797353004       -3.1498233269        6.4330163166
  O        -2.7925113864       -3.4732237158        3.4612331596
  H        -3.1129543056       -3.8620641144        4.2746132111
  H        -3.2856093678       -4.0271447136        2.8274407488
  O         2.4867711476        4.6803618907       -3.9511208166
  H         3.3971373036        4.5081635205       -3.6298163906
  H         1.9790712168        4.6240682409       -3.1152437525
  O         1.6590765104        0.0523137912       -3.1069189687
  H         1.5113564742       -0.5996769003       -2.3563690233
  H         2.5068721250        0.5264194699       -3.0661523880
  O        -1.2023048654       -8.1603479212       -6.3670700282
  H        -0.9055157967       -9.0690551157       -6.5705273597
  H        -2.1798096138       -8.0740016376       -6.5464905196
  O        -0.4761071273        8.3851620636        0.5987466087
  H         0.3632441731        8.3096547993        1.1058350782
  H        -1.2852386123        8.0753854402        1.0587255936
  O         5.9065449362       -6.7989771803       -6.6004398209
  H         5.4130154976       -7.6233171741       -6.9137876216
  H         6.2177506878       -6.2344541440       -7.3198720135
  O        -0.3594330297       -5.2622440761        4.6704297767
  H        -0.4156127476       -6.0988819305        4.1367481919
  H        -1.2931127588       -5.1547968831        4.9497584977
  O        -3.8273131578       -5.5279235466        1.7633664403
  H        -4.1388543582       -6.3621998573        2.1513804320
  H        -4.3955669691       -5.3216936959        1.0405948547
     193
 i =        1, time =        0.500, E =     -1102.9944862959
  O         3.8618896753       -4.7564805740        5.5096124342
  H         4.2148713090       -5.5549174395        5.9962696678
  H         3.0920254585       -4.3225559376        5.9065164189
  O        -3.5427456054        1.7429174113        4.2899133200
  H        -3.3417061457        0.8258576242        4.1542948218
  H        -3.6022860349        1.9356842850        5.2821473104
  O         4.5682766286        2.9324460263       -7.0982515640
  H         3.6679205696        3.2178345091       -6.8132664418
  H         4.4883324854        2.7947125772       -8.0524502022
  O        -2.5736884159       -0.1019409322       -3.4158678430
  H        -2.0456022273        0.4262183541       -2.8321655657
  H        -1.8805239857       -0.6211836607       -3.9225614659
  O        -3.7623364777       -7.7105569057        5.6259054976
  H        -4.6427626639       -7.4219884967        5.9939464477
  H        -3.8516227430       -7.6244568947        4.6611557631
  O        -6.7094750621       -0.0752357086        2.3188743454
  H        -6.0394077804       -0.4625315794        3.0176406974
  H        -6.2612575468        0.7369786687        1.9591951650
  O         4.0136446375       -5.5817765499       -0.4127863330
  H         3.3292777839       -5.6071253643        0.3125583020
  H         3.9119283530       -4.7475402825       -0.8221625711
  O        -2.6722850313       -3.0803241198       -1.2268948654
  H        -3.2340239096       -2.4492865731       -1.7444202555
  H        -2.2114655794       -2.5971447936       -0.5752677929
  O         5.4552112010       -3.1687456741        3.0995094452
  H         4.6941823948       -3.2357258825        3.6356181644
  H         5.2637757230       -3.0649925860        2.1391377057
  O         2.0076335228        3.8027387732       -6.6438538592
  H         1.3655494978        3.0697811609       -6.8008513425
  H         1.8273976432        4.0668487027       -5.7125664410
  O         4.0603249807       -3.8906786275       -3.0584294150
  H         3.2261258337       -3.7181011498       -3.6831700368
  H         4.3517417564       -2.9681167747       -2.9759598439
  O         1.9771430748       -1.8457146491        1.0202000149
  H         1.5797316552       -2.4654548166        1.6451483968
  H         1.6076032796       -1.9236632260        0.0636587266
  O         0.7300450333       -5.7416726240       -5.0109184069
  H         1.4785733042       -6.3202742751       -4.8150901470
  H         0.4503964858       -5.7146776946       -5.9491384522
  O        -7.5205333250       -8.6780159681       -3.2366115842
  H        -7.8692342169       -9.6016996803       -3.0944755185
  H        -7.1372929279       -8.5837487864       -2.3503026933
  O         3.0073176547       -1.6212019965        5.1698736654
  H         3.8539320835       -1.8090058853        5.6857011757
  H         3.1600522786       -0.8292206753        4.6087994645
  O        -0.0949653479        1.8624011833       -6.6870625324
  H         0.2467530196        1.0549918220       -6.3261445353
  H        -0.0519161907        1.7492085316       -7.6537978751
  O         1.3774984925       -3.0811972168        3.6599602451
  H         2.0163291635       -2.6793246527        4.3182594819
  H         1.1013401343       -3.9647316516        3.9791206715
  O        -2.3261222397        2.8032360329        2.2377165758
  H        -1.6171664565        2.1485529051        2.1997598724
  H        -2.7632682490        2.5810593613        3.0965107005
  O         0.8707969183       -0.6621468358       -5.6028619499
  H         1.7110632486       -0.8250933758       -6.1163934026
  H         1.2078415383       -0.2359962217       -4.7574640080
  O        -1.1845137267       -0.7180540582        0.2466608373
  H        -1.1314711978        0.2316209471       -0.0612211224
  H        -0.9309064253       -0.7927104420        1.1975997634
  O        -3.8865753821       -9.0117568791       -3.1296735038
  H        -4.4944071761       -8.2872213991       -3.2112582842
  H        -2.9156821429       -8.7319587308       -3.1216933123
  O         4.9794952191        4.5559911600        2.1626884496
  H         4.5679786827        4.0744890067        1.4251243810
  H         4.2101540140        4.9030137892        2.6857087336
  O         4.2048350288        1.0310279272       -3.2100221134
  H         4.6410885724        0.8575414131       -4.0545007952
  H         4.4295714491        0.1917864835       -2.7347421965
  O        -5.2084644768       -6.3467129641       -2.6854803593
  H        -5.3726722163       -6.0694605778       -1.7558286687
  H        -6.0030046793       -6.0955459722       -3.1576519811
  O         4.8280868509       -2.1529568311        0.6969740891
  H         5.1672407860       -1.3767097087        1.1630233032
  H         3.8635970071       -2.0203934698        0.7895531177
  O         2.1064052584        0.9371238682        1.6947508593
  H         2.7562500842        1.4982092631        1.2757565968
  H         2.3105898261        0.0763345926        1.2829705599
  O        -5.7574971429       -5.0942147115       -0.3633622074
  H        -6.6936920447       -5.4266245272       -0.2508094206
  H        -5.9387822487       -4.1779710528       -0.6761519339
  O        -4.8536883610        4.6338129003        2.6306648001
  H        -5.8196798440        4.7195186382        2.3663435629
  H        -4.7747593757        3.6802477586        2.2531447784
  O         5.5096120363        0.8512820180       -5.5945786760
  H         6.4010771363        1.2058780123       -5.3391284639
  H         5.0338597701        1.4696894692       -6.2855444563
  H         1.7439045290       -0.9242518727       -0.2637230097
  O         0.7396479181       -1.9153616754       -1.2745155467
  H         0.4330043838       -2.6672151644       -1.8491907871
  H        -0.0373491987       -1.6320277727       -0.7360089337
  O         3.9007248445        2.6226355837        0.0837021328
  H         4.6586697728        2.4123883819       -0.5062841056
  H         3.3567396914        3.2560432652       -0.4689167812
  O        -1.1006635602       -1.3691703778        2.9527414045
  H        -0.3331929731       -2.0346557495        3.1092955451
  H        -1.8393764736       -1.9883259860        3.1876340224
  O         2.0720517296       -5.6489979724        1.3599454651
  H         1.2056702378       -6.1363256605        1.2548723254
  H         2.4484513257       -5.8928012435        2.2569206761
  O        -0.6293594861       -3.8286207015       -2.8474367010
  H        -1.5521494746       -3.7813443696       -2.5890734452
  H        -0.5085217195       -4.5968943618       -3.4026625188
  O        -5.2917434279        2.0615062447        1.4339706480
  H        -4.4325456905        1.8894930933        1.9034813804
  H        -5.1475040782        1.9262568557        0.4319545585
  O         1.9614799080       -3.4292808256       -5.2659598855
  H         1.3144982373       -4.2061038714       -5.0382196320
  H         1.2985962315       -2.7695703187       -5.4927877323
  O        -1.1921149656        3.9355814466       -3.3715209132
  H        -1.1925553394        3.9705781225       -4.3643879952
  H        -0.7296021583        4.6633618829       -2.9321948170
  O        -5.4299088547       -5.0043377739        4.2780260648
  H        -6.1170679453       -4.5092440068        3.7863950972
  H        -4.7582050232       -5.3392440550        3.6744648436
  O         2.9758385119        5.7928339139        3.6021133908
  H         3.4198965201        6.4638783637        4.1618324490
  H         2.4533713777        5.2104026190        4.2304341855
  O        -4.0513837115        1.5452367196       -5.0660669887
  H        -3.5228290361        0.7953650379       -4.6184832775
  H        -4.0300602844        2.3465571510       -4.4233156215
  O         3.4835669790        0.5969129285        4.0096847149
  H         2.7907454532        0.5316780837        3.2671136883
  H         4.3290353219        0.4278560556        3.4364301908
  O        -4.6231667400       -1.0114113310        4.0027196150
  H        -5.3404487921       -1.2499751859        4.6334339377
  H        -4.2203687978       -1.8944927382        3.8298787910
  O        -0.2157015809        1.2748530472        3.1179186297
  H         0.6447055754        1.4033292995        2.7207265191
  H        -0.3916535054        0.3131100225        3.0541068755
  O        -1.9936597857        5.0719133552        0.6013512023
  H        -2.3413253143        4.2315620155        0.9988448257
  H        -2.6352926814        5.7600077141        0.8443605297
  O        -1.3080774071       -1.8938121231       -4.9534310324
  H        -0.8705493743       -2.4021375549       -4.2570076260
  H        -0.6025759173       -1.3577917012       -5.4442549366
  O        -5.1388694483        1.8069558596       -1.2874435094
  H        -4.6966279339        2.4744092180       -1.8492992099
  H        -5.4267335460        1.1247760080       -1.8602833603
  O        -7.3795921970       -1.2115830238       -1.9485819225
  H        -6.4168049627       -1.0383719193       -2.1253959517
  H        -7.4838575936       -1.5283055812       -1.0375097719
  O        -0.4605249265        1.4062663259       -1.7229242424
  H        -0.7795477360        2.1831498235       -2.2056443579
  H         0.2610063514        0.9822490610       -2.2289322636
  O        -0.0323771058       -6.5208229772       -1.0939157731
  H         0.0056698897       -5.5305957270       -1.1196626504
  H        -0.8162215173       -6.7468488868       -0.4741590416
  O         5.7105734179       -1.6932626440        6.0205502158
  H         6.0248185291       -2.5153524851        6.4175519661
  H         5.6852730341       -0.8910868325        6.6349804923
  O        -2.5940390638       -5.7677092473       -4.2182720255
  H        -2.6071953626       -6.7151700716       -4.4750048861
  H        -3.4436834490       -5.5726484265       -3.8532975702
  O        -4.9470025131       -1.4115668585       -3.2446024260
  H        -4.8927366273       -2.2388434841       -3.7581333224
  H        -3.9717680554       -1.0837541769       -3.2414696168
  O         2.2975396155       -8.0833187628       -1.2130754982
  H         1.2981508021       -8.0829137995       -1.1140750126
  H         2.5216248616       -7.1137238252       -1.1712943654
  O         6.7795039795       -3.8956200232       -5.3334562781
  H         7.5474006012       -4.0962007998       -5.8136439551
  H         6.0431225808       -4.4274049105       -5.6546072249
  O        -0.3454865925        4.9680996082        2.9523000645
  H        -0.6529729932        4.1684954250        3.4625129434
  H        -0.6915289161        4.8628234982        2.0440110614
  O        -2.8035366117       -4.0048282250        6.2234239463
  H        -2.3849549415       -4.6323378110        6.8495313180
  H        -2.3842517092       -3.1468492745        6.4235195824
  O        -2.7942071999       -3.4738316664        3.4608496255
  H        -3.1098150770       -3.8681279972        4.2681883401
  H        -3.2963049185       -4.0289211977        2.8380135805
  O         2.4857617963        4.6853515278       -3.9509408241
  H         3.3979957586        4.5062460312       -3.6235259881
  H         1.9905783529        4.6358946479       -3.1197037987
  O         1.6573385505        0.0488029686       -3.1075598531
  H         1.5299679262       -0.5983622744       -2.3502609368
  H         2.5088247002        0.5340191384       -3.0664950678
  O        -1.2035892915       -8.1574401147       -6.3693925520
  H        -0.9111450978       -9.0691767046       -6.5665103526
  H        -2.1830344289       -8.0666058680       -6.5504427767
  O        -0.4739156314        8.3843220005        0.5983591644
  H         0.3677703898        8.3152383564        1.1029317044
  H        -1.2982339902        8.0699348796        1.0538007768
  O         5.9080660988       -6.7979948572       -6.6009458526
  H         5.4043773118       -7.6111702014       -6.9109078134
  H         6.2456598836       -6.2406993365       -7.3200552979
  O        -0.3561231070       -5.2635300961        4.6729537113
  H        -0.4051077936       -6.0921814139        4.1400147132
  H        -1.2964542336       -5.1514418639        4.9601494196
  O        -3.8236411367       -5.5250058884        1.7611748466
  H        -4.1393141358       -6.3540140333        2.1494429590
  H        -4.4080105059       -5.3219208482        1.0402665181
     193
 i =        2, time =        1.000, E =     -1103.0053409259
  O         3.8663324953       -4.7602050897        5.5096934431
  H         4.2188838728       -5.5566296261        6.0007450048
  H         3.0847276530       -4.3207780824        5.8983712930
  O        -3.5401253071        1.7409724104        4.2922776886
  H        -3.3273251554        0.8121599143        4.1524469028
  H        -3.6039128663        1.9270162620        5.2881453905
  O         4.5691223440        2.9321649695       -7.0959651528
  H         3.6577221099        3.2087844732       -6.8183851023
  H         4.4793804309        2.8049562393       -8.0586982750
  O        -2.5731284808       -0.0979176094       -3.4154309608
  H        -2.0530676948        0.4380185932       -2.8333157088
  H        -1.8751094694       -0.6268698037       -3.9199841220
  O        -3.7630985271       -7.7103779826        5.6241745905
  H        -4.6501321987       -7.4245927166        5.9995926885
  H        -3.8533299426       -7.6110273729        4.6554480840
  O        -6.7055231607       -0.0752531546        2.3194002277
  H        -6.0387338155       -0.4724013899        3.0270820523
  H        -6.2621527094        0.7356946506        1.9582325797
  O         4.0156424302       -5.5827339793       -0.4134317714
  H         3.3242835168       -5.5957939232        0.3194864777
  H         3.9224415913       -4.7371374503       -0.8153250402
  O        -2.6757585857       -3.0798482302       -1.2278513360
  H        -3.2175485529       -2.4503477705       -1.7467570693
  H        -2.2287414428       -2.5925303845       -0.5687273454
  O         5.4528958495       -3.1688267075        3.0989341586
  H         4.6942640885       -3.2318808630        3.6526443911
  H         5.2621414236       -3.0780946627        2.1393595321
  O         2.0075449737        3.8027165000       -6.6440942954
  H         1.3568110657        3.0728586368       -6.8007738304
  H         1.8176316310        4.0682685320       -5.7123860816
  O         4.0605855196       -3.8890532297       -3.0575316921
  H         3.2241275789       -3.7208650095       -3.6662396204
  H         4.3695517986       -2.9497424079       -2.9643838179
  O         1.9780121104       -1.8461955762        1.0176752428
  H         1.5965664649       -2.4643288453        1.6461970447
  H         1.5983463509       -1.9417301827        0.0682688321
  O         0.7266030986       -5.7405582216       -5.0101006985
  H         1.4804408299       -6.3141584573       -4.8157750203
  H         0.4541494944       -5.7193929083       -5.9511378505
  O        -7.5241669468       -8.6782123212       -3.2363551702
  H        -7.8705419596       -9.5999175189       -3.1056984372
  H        -7.1415271421       -8.5907653195       -2.3494098871
  O         3.0060642524       -1.6227731146        5.1687350843
  H         3.8584168005       -1.8184344385        5.6847356241
  H         3.1584179730       -0.8325953570        4.6035707367
  O        -0.0949481887        1.8632602921       -6.6880249840
  H         0.2559111075        1.0432974954       -6.3350007273
  H        -0.0586461086        1.7596673105       -7.6520155362
  O         1.3756627950       -3.0799988148        3.6608327354
  H         2.0297695693       -2.6816087195        4.3207938509
  H         1.1039792978       -3.9650405237        3.9792870102
  O        -2.3257962322        2.8029452933        2.2410770616
  H        -1.6079968937        2.1611315099        2.2115543287
  H        -2.7696151152        2.5800901448        3.1085798280
  O         0.8672478729       -0.6628443990       -5.6046161265
  H         1.7070744347       -0.8373015303       -6.1242443367
  H         1.2199512665       -0.2376777939       -4.7626888613
  O        -1.1817395214       -0.7200382136        0.2497448719
  H        -1.1299261415        0.2274268707       -0.0496020175
  H        -0.9250987133       -0.7959101904        1.1958080166
  O        -3.8847239070       -9.0116241732       -3.1280809454
  H        -4.4908874631       -8.2904257139       -3.2105577213
  H        -2.9099095426       -8.7338526027       -3.1219554040
  O         4.9814803320        4.5540634508        2.1652864384
  H         4.5666817414        4.0858052873        1.4109966857
  H         4.2119905293        4.9013788647        2.7006886527
  O         4.2016260784        1.0333138827       -3.2071252034
  H         4.6624990344        0.8644101415       -4.0473635492
  H         4.4356477948        0.1937718596       -2.7304227091
  O        -5.2070557558       -6.3489588277       -2.6914577364
  H        -5.3631039195       -6.0528486608       -1.7385697737
  H        -6.0105555501       -6.1051142915       -3.1651779198