#     Step Nr.          Time[fs]        Kin.[a.u.]          Temp[K]            Pot.[a.u.]        Cons Qty[a.u.]        UsedTime[s]
         0            0.000000         0.275037913       300.000000000     -1102.989452160     -1102.714414248         0.000000000
         1            0.500000         0.281183784       306.703663115     -1102.994486296     -1102.714509435      4473.639470346
         2            1.000000         0.277373971       302.548076029     -1103.005340926     -1102.714763767       275.064022470
         3            1.500000         0.285222098       311.108489548     -1103.018982300     -1102.715048608      2287.142485004
         4            2.000000         0.286460278       312.459044862     -1103.028271358     -1102.715525936       316.615069475
         5            2.500000         0.305763529       333.514234228     -1103.036787889     -1102.715600363       378.309079975
         6            3.000000         0.326740387       356.394924873     -1103.040141028     -1102.715562531       814.531168550
         7            3.500000         0.316590912       345.324296542     -1103.037856723     -1102.715403460       248.119033590
         8            4.000000         0.306203085       333.993682902     -1103.033856400     -1102.715220474       179.566071548
         9            4.500000         0.309571993       337.668349655     -1103.030417666     -1102.715095008       157.225999951
        10            5.000000         0.302935345       330.429367398     -1103.028519537     -1102.715033359       575.286160197
        11            5.500000         0.317320175       346.119745996     -1103.031441073     -1102.715089749       181.879000083
        12            6.000000         0.314523649       343.069410720     -1103.034283124     -1102.715168722       211.694083665
        13            6.500000         0.305219445       332.920768995     -1103.038706510     -1102.715232057       196.240003381
        14            7.000000         0.299931394       327.152781893     -1103.044199233     -1102.715290200       158.856070653
        15            7.500000         0.318514152       347.422086821     -1103.047478080     -1102.715285797       143.287996117
        16            8.000000         0.323736348       353.118243036     -1103.053352389     -1102.715328099       122.826023877
        17            8.500000         0.305979104       333.749374288     -1103.056778777     -1102.715315719       110.995022707
        18            9.000000         0.297940344       324.981026141     -1103.060021397     -1102.715299772       102.190056339
        19            9.500000         0.305108811       332.800094622     -1103.061995226     -1102.715223586       101.108988557
        20           10.000000         0.312557930       340.925286160     -1103.066311164     -1102.715199898       498.760149855
        21           10.500000         0.328775907       358.615185556     -1103.072998827     -1102.715187433        95.170975797
        22           11.000000         0.328351341       358.152086706     -1103.081778659     -1102.715241735        95.203057732
        23           11.500000         0.328881077       358.729900373     -1103.091928125     -1102.715343184        86.178979393
        24           12.000000         0.331653041       361.753444704     -1103.101238210     -1102.715367663        86.833020568
        25           12.500000         0.329672048       359.592659528     -1103.108437583     -1102.715352101        81.166019004
        26           13.000000         0.322935006       352.244172015     -1103.113413579     -1102.715310811        78.924016759
        27           13.500000         0.337451732       368.078417968     -1103.118236031     -1102.715267443        77.652051430
        28           14.000000         0.319537769       348.538606417     -1103.124875191     -1102.715268019        82.269969448
        29           14.500000         0.325730721       355.293622153     -1103.132421410     -1102.715342753        76.474032376
        30           15.000000         0.333698419       363.984458535     -1103.137343308     -1102.715391459       409.413126893
        31           15.500000         0.350912009       382.760331520     -1103.140498811     -1102.715435825        78.513978228
        32           16.000000         0.339312635       370.108213271     -1103.140971655     -1102.715441608        78.067018453
        33           16.500000         0.316914910       345.677699591     -1103.139899045     -1102.715405313        79.936051950
        34           17.000000         0.312756725       341.142123729     -1103.138006896     -1102.715342665        78.945981435
        35           17.500000         0.316362529       345.075185312     -1103.136003872     -1102.715300568        80.024020012
        36           18.000000         0.329519123       359.425855059     -1103.135581068     -1102.715357725        80.533018157
        37           18.500000         0.344805728       376.099852869     -1103.131804314     -1102.715335436        78.910021033
        38           19.000000         0.314620213       343.174739089     -1103.124885969     -1102.715250107        80.091052819
        39           19.500000         0.308964809       337.006058227     -1103.120609712     -1102.715155032        79.352979794
        40           20.000000         0.297630938       324.643539788     -1103.122431061     -1102.715180272       429.762137420
        41           20.500000         0.317024002       345.796692432     -1103.128083606     -1102.715270296        79.158979226
        42           21.000000         0.321140855       350.287185993     -1103.133847259     -1102.715387217        78.980001435
        43           21.500000         0.310768673       338.973638817     -1103.138575602     -1102.715436917        78.189034428
        44           22.000000         0.312980171       341.385849188     -1103.144814096     -1102.715526058        81.890053615
        45           22.500000         0.307616254       335.535110023     -1103.148927894     -1102.715582997        78.906984631
        46           23.000000         0.301247800       328.588663139     -1103.152139514     -1102.715645964        79.123017445
        47           23.500000         0.305383453       333.099662265     -1103.156039485     -1102.715719118        79.440018844
        48           24.000000         0.314490079       343.032794550     -1103.158787305     -1102.715777067        79.600001991
        49           24.500000         0.309234906       337.300668301     -1103.160320770     -1102.715801780        80.777070940
        50           25.000000         0.305459852       333.182995862     -1103.158835175     -1102.715761581       468.797112919
        51           25.500000         0.286494889       312.496797324     -1103.154517497     -1102.715619026        77.406982414
        52           26.000000         0.281751070       307.322435418     -1103.154025359     -1102.715590762        82.536016937
        53           26.500000         0.300141748       327.382227547     -1103.154346253     -1102.715615687        79.471020378
        54           27.000000         0.304939475       332.615389611     -1103.156791026     -1102.715684796        78.561055560
        55           27.500000         0.290967724       317.375580114     -1103.157459337     -1102.715665697        79.609987270
        56           28.000000         0.281318637       306.850755265     -1103.160229547     -1102.715707231        80.458016217
        57           28.500000         0.291042076       317.456680392     -1103.161777479     -1102.715759309        79.547017802
        58           29.000000         0.284613889       310.445079979     -1103.158443219     -1102.715683936        79.493004240
        59           29.500000         0.291834735       318.321280366     -1103.156611117     -1102.715637763        80.388029426
        60           30.000000         0.289287544       315.542909737     -1103.155392899     -1102.715591995       513.778156992
        61           30.500000         0.292463851       319.007494250     -1103.156801495     -1102.715625480        81.658977836
        62           31.000000         0.301658442       329.036574803     -1103.157574105     -1102.715629475        80.842025980
        63           31.500000         0.309697229       337.804951671     -1103.157217060     -1102.715622480        79.223011583
        64           32.000000         0.314301580       342.827187073     -1103.156658314     -1102.715613343        79.382049568
        65           32.500000         0.316620255       345.356302557     -1103.153396473     -1102.715569230        79.981984366
        66           33.000000         0.315604474       344.248330106     -1103.147790480     -1102.715424467        82.919018134
        67           33.500000         0.319806261       348.831466303     -1103.144871696     -1102.715326726        80.130018327
        68           34.000000         0.323828182       353.218411676     -1103.145010854     -1102.715341401        82.500019867
        69           34.500000         0.341269065       372.242207011     -1103.147694230     -1102.715392144        79.573013555
        70           35.000000         0.341709368       372.722470646     -1103.150832952     -1102.715415341       510.996153418
        71           35.500000         0.338179003       368.871694772     -1103.153184312     -1102.715415024        82.112981927
        72           36.000000         0.340422725       371.319054155     -1103.156904549     -1102.715466478        78.723018799
        73           36.500000         0.342276908       373.341520555     -1103.158830446     -1102.715484603        77.356017642
        74           37.000000         0.314347401       342.877166947     -1103.159600194     -1102.715507376        78.300051164
        75           37.500000         0.328354471       358.155500463     -1103.162129068     -1102.715614818        82.604986787
        76           38.000000         0.311795397       340.093546595     -1103.162039892     -1102.715616614        78.457017247
        77           38.500000         0.304980364       332.659989559     -1103.160600330     -1102.715550875        82.478055835
        78           39.000000         0.309001977       337.046599171     -1103.158707672     -1102.715459170        79.753982879
        79           39.500000         0.307343867       335.238001160     -1103.157069713     -1102.715373373        81.632015720
        80           40.000000         0.294825600       321.583592739     -1103.154509885     -1102.715269987       408.546132814
        81           40.500000         0.309698466       337.806300202     -1103.154789498     -1102.715267715        78.545963757
        82           41.000000         0.298741295       325.854671153     -1103.155687402     -1102.715280859        78.398034699
        83           41.500000         0.311366348       339.625557863     -1103.159717495     -1102.715398002        79.608018033
        84           42.000000         0.319247932       348.222463905     -1103.163450840     -1102.715551902        75.526052576
        85           42.500000         0.321351668       350.517132554     -1103.163721944     -1102.715618124        78.974983104
        86           43.000000         0.305528265       333.257618075     -1103.163367776     -1102.715617184        76.655016001
        87           43.500000         0.302670024       330.139966209     -1103.163527152     -1102.715634078        81.079055898
        88           44.000000         0.318702339       347.627354201     -1103.162815240     -1102.715591444        78.090978514
        89           44.500000         0.309147531       337.205363173     -1103.159879880     -1102.715525957        77.383003786
        90           45.000000         0.306136814       333.921398226     -1103.156684626     -1102.715482517       527.337168995
        91           45.500000         0.307498437       335.406599907     -1103.155169875     -1102.715460080        79.765967563
        92           46.000000         0.306298781       334.098065170     -1103.153158316     -1102.715431383        76.740069889
        93           46.500000         0.289984255       316.302853662     -1103.149863081     -1102.715363986        80.367981117
        94           47.000000         0.276624398       301.730472952     -1103.148155123     -1102.715322235        81.309010975
        95           47.500000         0.285151295       311.031260463     -1103.150704422     -1102.715353780        78.652065925
        96           48.000000         0.289129357       315.370366286     -1103.151968214     -1102.715324816        83.333970286
        97           48.500000         0.298137182       325.195729141     -1103.152345966     -1102.715247903        80.493032981
        98           49.000000         0.304098371       331.697947929     -1103.153031415     -1102.715205902        79.156014405
        99           49.500000         0.310292107       338.453820212     -1103.155708025     -1102.715266751        77.317054477
       100           50.000000         0.278098478       303.338338598     -1103.158240677     -1102.715328988       476.058110900
       101           50.500000         0.284802469       310.650774822     -1103.162101343     -1102.715362017        78.422014032
       102           51.000000         0.301305940       328.652079609     -1103.166004863     -1102.715401195        79.775984269
       103           51.500000         0.299579402       326.768843786     -1103.165022005     -1102.715320502        79.376019306
       104           52.000000         0.289648033       315.936116639     -1103.164515262     -1102.715266493        77.591055244
       105           52.500000         0.274351860       299.251682644     -1103.163281248     -1102.715195386        79.504978996
       106           53.000000         0.277898217       303.119901488     -1103.167454015     -1102.715288793        75.774025172
