 DBCSR| CPU Multiplication driver                                           XSMM
 DBCSR| Multrec recursion limit                                              512
 DBCSR| Multiplication stack size                                           1000
 DBCSR| Maximum elements for images                                    UNLIMITED
 DBCSR| Multiplicative factor virtual images                                   1
 DBCSR| Use multiplication densification                                       T
 DBCSR| Multiplication size stacks                                             3
 DBCSR| Use memory pool for CPU allocation                                     F
 DBCSR| Number of 3D layers                                               SINGLE
 DBCSR| Use MPI memory allocation                                              F
 DBCSR| Use RMA algorithm                                                      F
 DBCSR| Use Communication thread                                               T
 DBCSR| Communication thread load                                             87
 DBCSR| MPI: My node id                                                        0
 DBCSR| MPI: Number of nodes                                                  12
 DBCSR| OMP: Current number of threads                                         1
 DBCSR| OMP: Max number of threads                                             1
 DBCSR| Split modifier for TAS multiplication algorithm                  1.0E+00


  **** **** ******  **  PROGRAM STARTED AT               2024-11-28 03:00:51.473
 ***** ** ***  *** **   PROGRAM STARTED ON                     cs008.hpc.nyu.edu
 **    ****   ******    PROGRAM STARTED BY                                wx2237
 ***** **    ** ** **   PROGRAM PROCESS ID                               2754633
  **** **  *******  **  PROGRAM STARTED IN /scratch/work/courses/CHEM-GA-2671-20
                                           24fa/students/wx2237/comp-lab-class-2
                                           024/Week12-IntroAIMD/Runs/Proton

 CP2K| version string:                    CP2K version 8.0 (Development Version)
 CP2K| source code revision number:                                  git:8c64c6e
 CP2K| cp2kflags: omp libint fftw3 libxc elpa parallel mpi3 scalapack xsmm max_c
 CP2K|            ontr=4 mkl
 CP2K| is freely available from                            https://www.cp2k.org/
 CP2K| Program compiled at                          Sat Dec 12 18:27:15 EST 2020
 CP2K| Program compiled on                                     cs001.nyu.cluster
 CP2K| Program compiled for                                            nyu-intel
 CP2K| Data directory path                    /home/wang/cp2k-20201212/cp2k/data
 CP2K| Input file name                                                proton.inp
 
 GLOBAL| Force Environment number                                              1
 GLOBAL| Basis set file name                                           HFX_BASIS
 GLOBAL| Potential file name                                      GTH_POTENTIALS
 GLOBAL| MM Potential file name                                     MM_POTENTIAL
 GLOBAL| Coordinate file name                                         proton.xyz
 GLOBAL| Method name                                                        CP2K
 GLOBAL| Project name                                 proton_aimd_1ns_every0.5fs
 GLOBAL| Preferred FFT library                                             FFTW3
 GLOBAL| Preferred diagonalization lib.                                     ELPA
 GLOBAL| Run type                                                             MD
 GLOBAL| All-to-all communication in single precision                          F
 GLOBAL| FFTs using library dependent lengths                                  F
 GLOBAL| Global print level                                                  LOW
 GLOBAL| MPI I/O enabled                                                       T
 GLOBAL| Total number of message passing processes                            12
 GLOBAL| Number of threads for this process                                    1
 GLOBAL| This output is from process                                           0
 GLOBAL| CPU model name             Intel(R) Xeon(R) Platinum 8268 CPU @ 2.90GHz
 GLOBAL| CPUID                                                              1003
 GLOBAL| Compiled for CPUID                                                    0

 *** HINT in environment.F:801 :: The compiler target flags (generic) used ***
 *** to build this binary cannot exploit all extensions of this CPU model  ***
 *** (x86_avx512). Consider compiler target flags as part of FCFLAGS and   ***
 *** CFLAGS (ARCH file).                                                   ***


 MEMORY| system memory details [Kb]
 MEMORY|                        rank 0           min           max       average
 MEMORY| MemTotal            197210712     197210712     197210712     197210712
 MEMORY| MemFree             141019216     141019216     141019216     141019216
 MEMORY| Buffers                 43408         43408         43408         43408
 MEMORY| Cached               19584432      19584432      19584432      19584432
 MEMORY| Slab                  1848192       1848192       1848192       1848192
 MEMORY| SReclaimable          1076676       1076676       1076676       1076676
 MEMORY| MemLikelyFree       161723732     161723732     161723732     161723732

 
 GENERATE|  Preliminary Number of Bonds generated:                             0
 GENERATE|  Achieved consistency in connectivity generation.

 *******************************************************************************
 *   ___                                                                       *
 *  /   \                                                                      *
 * [ABORT]                                                                     *
 *  \___/    The specified OLD file <HFX_BASIS> cannot be opened. It does not  *
 *    |       exist. Data directory path: /home/wang/cp2k-20201212/cp2k/data   *
 *  O/|                                                                        *
 * /| |                                                                        *
 * / \                                                   common/cp_files.F:395 *
 *******************************************************************************


 ===== Routine Calling Stack ===== 

            3 read_qs_kind
            2 create_qs_kind_set
            1 CP2K
 DBCSR| CPU Multiplication driver                                           XSMM
 DBCSR| Multrec recursion limit                                              512
 DBCSR| Multiplication stack size                                           1000
 DBCSR| Maximum elements for images                                    UNLIMITED
 DBCSR| Multiplicative factor virtual images                                   1
 DBCSR| Use multiplication densification                                       T
 DBCSR| Multiplication size stacks                                             3
 DBCSR| Use memory pool for CPU allocation                                     F
 DBCSR| Number of 3D layers                                               SINGLE
 DBCSR| Use MPI memory allocation                                              F
 DBCSR| Use RMA algorithm                                                      F
 DBCSR| Use Communication thread                                               T
 DBCSR| Communication thread load                                             87
 DBCSR| MPI: My node id                                                        0
 DBCSR| MPI: Number of nodes                                                  12
 DBCSR| OMP: Current number of threads                                         1
 DBCSR| OMP: Max number of threads                                             1
 DBCSR| Split modifier for TAS multiplication algorithm                  1.0E+00


  **** **** ******  **  PROGRAM STARTED AT               2024-11-28 03:07:50.645
 ***** ** ***  *** **   PROGRAM STARTED ON                     cs008.hpc.nyu.edu
 **    ****   ******    PROGRAM STARTED BY                                wx2237
 ***** **    ** ** **   PROGRAM PROCESS ID                               2755388
  **** **  *******  **  PROGRAM STARTED IN /scratch/work/courses/CHEM-GA-2671-20
                                           24fa/students/wx2237/comp-lab-class-2
                                           024/Week12-IntroAIMD/Runs/Proton

 CP2K| version string:                    CP2K version 8.0 (Development Version)
 CP2K| source code revision number:                                  git:8c64c6e
 CP2K| cp2kflags: omp libint fftw3 libxc elpa parallel mpi3 scalapack xsmm max_c
 CP2K|            ontr=4 mkl
 CP2K| is freely available from                            https://www.cp2k.org/
 CP2K| Program compiled at                          Sat Dec 12 18:27:15 EST 2020
 CP2K| Program compiled on                                     cs001.nyu.cluster
 CP2K| Program compiled for                                            nyu-intel
 CP2K| Data directory path                    /home/wang/cp2k-20201212/cp2k/data
 CP2K| Input file name                                                proton.inp
 
 GLOBAL| Force Environment number                                              1
 GLOBAL| Basis set file name                                       HFX_BASIS.txt
 GLOBAL| Potential file name                                  GTH_POTENTIALS.txt
 GLOBAL| MM Potential file name                                     MM_POTENTIAL
 GLOBAL| Coordinate file name                                         proton.xyz
 GLOBAL| Method name                                                        CP2K
 GLOBAL| Project name                                 proton_aimd_1ns_every0.5fs
 GLOBAL| Preferred FFT library                                             FFTW3
 GLOBAL| Preferred diagonalization lib.                                     ELPA
 GLOBAL| Run type                                                             MD
 GLOBAL| All-to-all communication in single precision                          F
 GLOBAL| FFTs using library dependent lengths                                  F
 GLOBAL| Global print level                                                  LOW
 GLOBAL| MPI I/O enabled                                                       T
 GLOBAL| Total number of message passing processes                            12
 GLOBAL| Number of threads for this process                                    1
 GLOBAL| This output is from process                                           0
 GLOBAL| CPU model name             Intel(R) Xeon(R) Platinum 8268 CPU @ 2.90GHz
 GLOBAL| CPUID                                                              1003
 GLOBAL| Compiled for CPUID                                                    0

 *** HINT in environment.F:801 :: The compiler target flags (generic) used ***
 *** to build this binary cannot exploit all extensions of this CPU model  ***
 *** (x86_avx512). Consider compiler target flags as part of FCFLAGS and   ***
 *** CFLAGS (ARCH file).                                                   ***


 MEMORY| system memory details [Kb]
 MEMORY|                        rank 0           min           max       average
 MEMORY| MemTotal            197210712     197210712     197210712     197210712
 MEMORY| MemFree             140986548     140986548     140986548     140986548
 MEMORY| Buffers                 43408         43408         43408         43408
 MEMORY| Cached               19585536      19585536      19585536      19585536
 MEMORY| Slab                  1847716       1847716       1847716       1847716
 MEMORY| SReclaimable          1076628       1076628       1076628       1076628
 MEMORY| MemLikelyFree       161692120     161692120     161692120     161692120

 
 GENERATE|  Preliminary Number of Bonds generated:                             0
 GENERATE|  Achieved consistency in connectivity generation.

 *******************************************************************************
 *******************************************************************************
 **                                                                           **
 **     #####                         ##              ##                      **
 **    ##   ##            ##          ##              ##                      **
 **   ##     ##                       ##            ######                    **
 **   ##     ##  ##   ##  ##   #####  ##  ##   ####   ##    #####    #####    **
 **   ##     ##  ##   ##  ##  ##      ## ##   ##      ##   ##   ##  ##   ##   **
 **   ##  ## ##  ##   ##  ##  ##      ####     ###    ##   ######   ######    **
 **    ##  ###   ##   ##  ##  ##      ## ##      ##   ##   ##       ##        **
 **     #######   #####   ##   #####  ##  ##  ####    ##    #####   ##        **
 **           ##                                                    ##        **
 **                                                                           **
 **                                                ... make the atoms dance   **
 **                                                                           **
 **            Copyright (C) by CP2K developers group (2000 - 2020)           **
 **                      J. Chem. Phys. 152, 194103 (2020)                    **
 **                                                                           **
 *******************************************************************************


 TOTAL NUMBERS AND MAXIMUM NUMBERS

  Total number of            - Atomic kinds:                                   2
                             - Atoms:                                        193
                             - Shell sets:                                   579
                             - Shells:                                       707
                             - Primitive Cartesian functions:                965
                             - Cartesian basis functions:                   1541
                             - Spherical basis functions:                   1477

  Maximum angular momentum of- Orbital basis functions:                        2
                             - Local part of the GTH pseudopotential:          2
                             - Non-local part of the GTH pseudopotential:      0


 SCF PARAMETERS         Density guess:                                    ATOMIC
                        --------------------------------------------------------
                        max_scf:                                              30
                        max_scf_history:                                       0
                        max_diis:                                              4
                        --------------------------------------------------------
                        eps_scf:                                        1.00E-06
                        eps_scf_history:                                0.00E+00
                        eps_diis:                                       1.00E-01
                        eps_eigval:                                     1.00E-05
                        --------------------------------------------------------
                        level_shift [a.u.]:                                 0.00
                        --------------------------------------------------------
                        Outer loop SCF in use 
                        No variables optimised in outer loop
                        eps_scf                                         1.00E-06
                        max_scf                                               10
                        No outer loop optimization
                        step_size                                       5.00E-01
 
 MD_PAR| Molecular dynamics protocol (MD input parameters)
 MD_PAR| Ensemble type                                                       NVT
 MD_PAR| Number of time steps                                               2000
 MD_PAR| Time step [fs]                                                 0.500000
 MD_PAR| Temperature [K]                                              300.000000
 MD_PAR| Temperature tolerance [K]                                      0.000000
 MD_PAR| Print MD information every                                    1 step(s)
 MD_PAR| File type   Print frequency [steps]                          File names
 MD_PAR| Coordinates          1             proton_aimd_1ns_every0.5fs-pos-1.xyz
 MD_PAR| Velocities           1             proton_aimd_1ns_every0.5fs-vel-1.xyz
 MD_PAR| Energies             1                proton_aimd_1ns_every0.5fs-1.ener
 MD_PAR| Dump                 1             proton_aimd_1ns_every0.5fs-1.restart

 ROT| Rotational analysis information
 ROT| Principal axes and moments of inertia [a.u.]
 ROT|                           1                   2                   3
 ROT| Eigenvalues      2.05602381319E+08   2.18444134283E+08   2.44830716161E+08
 ROT|      x              0.423018730909     -0.517067278349      0.744107910831
 ROT|      y              0.905409779759      0.208672319931     -0.369714746274
 ROT|      z              0.035892673589      0.830118842429      0.556430070563
 ROT| Number of rotovibrational vectors                                        6

 DOF| Calculation of degrees of freedom
 DOF| Number of atoms                                                        193
 DOF| Number of intramolecular constraints                                     0
 DOF| Number of intermolecular constraints                                     0
 DOF| Invariants (translations + rotations)                                    0
 DOF| Degrees of freedom                                                     579

 DOF| Restraints information
 DOF| Number of intramolecular restraints                                      0
 DOF| Number of intermolecular restraints                                      0

 THERMOSTAT| Thermostat information for PARTICLES
 THERMOSTAT| End of thermostat information for PARTICLES

 MD_VEL| Velocities initialization
 MD_VEL| Initial temperature [K]                                      300.000000
 MD_VEL| COM velocity            -0.0000000000    -0.0000000000     0.0000000000

 Number of electrons:                                                        512
 Number of occupied orbitals:                                                256
 Number of molecular orbitals:                                               256

 Number of orbital functions:                                               1477
 Number of independent orbital functions:                                   1477

 Extrapolation method: initial_guess


 SCF WAVEFUNCTION OPTIMIZATION

  ----------------------------------- OT ---------------------------------------
  Minimizer      : DIIS                : direct inversion
                                         in the iterative subspace
                                         using   7 DIIS vectors
                                         safer DIIS on
  Preconditioner : FULL_SINGLE_INVERSE : inversion of 
                                         H + eS - 2*(Sc)(c^T*H*c+const)(Sc)^T
  Precond_solver : DEFAULT
  stepsize       :    0.08000000                  energy_gap     :    0.08000000
  eps_taylor     :   0.10000E-15                  max_taylor     :             4
  ----------------------------------- OT ---------------------------------------

  Step     Update method      Time    Convergence         Total energy    Change
  ------------------------------------------------------------------------------
     1 OT DIIS     0.80E-01   23.7     0.02962410     -1058.9314434797 -1.06E+03
     2 OT DIIS     0.80E-01   13.7     0.02167708     -1078.6100290113 -1.97E+01
     3 OT DIIS     0.80E-01   12.9     0.01717566     -1088.8345270027 -1.02E+01
     4 OT DIIS     0.80E-01   13.4     0.01061924     -1097.0915604816 -8.26E+00
     5 OT DIIS     0.80E-01   10.1     0.00604723     -1100.5000282809 -3.41E+00
     6 OT DIIS     0.80E-01    9.0     0.00397120     -1101.7255633196 -1.23E+00
     7 OT DIIS     0.80E-01    9.3     0.00271466     -1102.1974831051 -4.72E-01
     8 OT DIIS     0.80E-01    9.0     0.00174139     -1102.4654427670 -2.68E-01
     9 OT DIIS     0.80E-01    9.5     0.00134820     -1102.5549812348 -8.95E-02
    10 OT DIIS     0.80E-01    9.3     0.00107929     -1102.6537828183 -9.88E-02
    11 OT DIIS     0.80E-01    9.4     0.00101958     -1102.7091448228 -5.54E-02
    12 OT DIIS     0.80E-01   11.2     0.00102485     -1102.7426896263 -3.35E-02
    13 OT SD       0.80E-01   13.3     0.00102678     -1102.7493814009 -6.69E-03
    14 OT DIIS     0.80E-01   13.5     0.00100134     -1102.7808953901 -3.15E-02
    15 OT DIIS     0.80E-01   13.3     0.00116321     -1102.7962193869 -1.53E-02
    16 OT DIIS     0.80E-01   13.7     0.00110888     -1102.8431781825 -4.70E-02
    17 OT DIIS     0.80E-01   13.1     0.00096925     -1102.8771923397 -3.40E-02
    18 OT DIIS     0.80E-01    9.6     0.00057642     -1102.9266302828 -4.94E-02
    19 OT DIIS     0.80E-01    9.2     0.00043869     -1102.9431000548 -1.65E-02
    20 OT DIIS     0.80E-01   11.8     0.00041980     -1102.9555340975 -1.24E-02
    21 OT DIIS     0.80E-01   12.6     0.00031231     -1102.9695369673 -1.40E-02
    22 OT DIIS     0.80E-01    9.5     0.00022456     -1102.9721789520 -2.64E-03
    23 OT DIIS     0.80E-01    9.7     0.00017926     -1102.9773652878 -5.19E-03
    24 OT DIIS     0.80E-01    9.5     0.00013016     -1102.9793543800 -1.99E-03
    25 OT DIIS     0.80E-01   12.4     0.00010686     -1102.9811873078 -1.83E-03
    26 OT DIIS     0.80E-01   10.2     0.00009329     -1102.9823288179 -1.14E-03
    27 OT DIIS     0.80E-01    9.7     0.00008281     -1102.9832290941 -9.00E-04
    28 OT DIIS     0.80E-01    9.6     0.00007160     -1102.9841691450 -9.40E-04
    29 OT DIIS     0.80E-01    9.5     0.00006295     -1102.9849118940 -7.43E-04
    30 OT DIIS     0.80E-01   12.0     0.00005592     -1102.9855327249 -6.21E-04

  Leaving inner SCF loop after reaching    30 steps.


  Electronic density on regular grids:       -511.9999999887        0.0000000113
  Core density on regular grids:              512.9999999831       -0.0000000169
  Total charge density on r-space grids:        0.9999999944
  Total charge density g-space grids:           0.9999999944

  Overlap energy of the core charge distribution:               0.00000237129544
  Self energy of the core charge distribution:              -2839.62839375007934
  Core Hamiltonian energy:                                    829.85804593879288
  Hartree energy:                                            1178.86266488774436
  Exchange-correlation energy:                               -271.82885346390015
  Dispersion energy:                                           -0.24899870877419

  Total energy:                                             -1102.98553272492109

  outer SCF iter =    1 RMS gradient =   0.56E-04 energy =      -1102.9855327249

  ----------------------------------- OT ---------------------------------------
  Minimizer      : DIIS                : direct inversion
                                         in the iterative subspace
                                         using   7 DIIS vectors
                                         safer DIIS on
  Preconditioner : FULL_SINGLE_INVERSE : inversion of 
                                         H + eS - 2*(Sc)(c^T*H*c+const)(Sc)^T
  Precond_solver : DEFAULT
  stepsize       :    0.08000000                  energy_gap     :    0.08000000
  eps_taylor     :   0.10000E-15                  max_taylor     :             4
  ----------------------------------- OT ---------------------------------------

  Step     Update method      Time    Convergence         Total energy    Change
  ------------------------------------------------------------------------------
     1 OT DIIS     0.80E-01   41.3     0.00021920     -1102.9859893145 -4.57E-04
     2 OT DIIS     0.80E-01    6.6     0.00015475     -1102.9870947523 -1.11E-03
     3 OT DIIS     0.80E-01    6.5     0.00015737     -1102.9875951019 -5.00E-04
     4 OT DIIS     0.80E-01    7.4     0.00009177     -1102.9880671722 -4.72E-04
     5 OT DIIS     0.80E-01    7.1     0.00007247     -1102.9882794381 -2.12E-04
     6 OT DIIS     0.80E-01    7.2     0.00005139     -1102.9883821188 -1.03E-04
     7 OT DIIS     0.80E-01    7.7     0.00004400     -1102.9884853907 -1.03E-04
     8 OT DIIS     0.80E-01    7.4     0.00004284     -1102.9885616711 -7.63E-05
     9 OT DIIS     0.80E-01    7.9     0.00003691     -1102.9886536351 -9.20E-05
    10 OT DIIS     0.80E-01    7.8     0.00003628     -1102.9886993969 -4.58E-05
    11 OT DIIS     0.80E-01    7.7     0.00003427     -1102.9887596538 -6.03E-05
    12 OT DIIS     0.80E-01    7.1     0.00003421     -1102.9887993136 -3.97E-05
    13 OT DIIS     0.80E-01    7.3     0.00003423     -1102.9888197368 -2.04E-05
    14 OT SD       0.80E-01    7.3     0.00003419     -1102.9888210115 -1.27E-06
    15 OT SD       0.80E-01    7.4     0.00003431     -1102.9888563812 -3.54E-05
    16 OT SD       0.80E-01    7.3     0.00003448     -1102.9888918555 -3.55E-05
    17 OT DIIS     0.80E-01    7.5     0.00003518     -1102.9889271417 -3.53E-05
    18 OT SD       0.80E-01    7.7     0.00004094     -1102.9890179155 -9.08E-05
    19 OT SD       0.80E-01    7.4     0.00004247     -1102.9890551653 -3.72E-05
    20 OT SD       0.80E-01    6.9     0.00006344     -1102.9890791164 -2.40E-05
    21 OT DIIS     0.80E-01   10.0     0.00013300     -1102.9890515735  2.75E-05
    22 OT SD       0.80E-01    9.3     0.00003660     -1102.9892952834 -2.44E-04
    23 OT SD       0.80E-01    9.8     0.00003538     -1102.9893127294 -1.74E-05
    24 OT DIIS     0.80E-01    9.9     0.00005397     -1102.9893163163 -3.59E-06
    25 OT DIIS     0.80E-01   10.0     0.00004027     -1102.9893599183 -4.36E-05
    26 OT DIIS     0.80E-01    9.6     0.00002704     -1102.9893494229  1.05E-05
    27 OT DIIS     0.80E-01   10.6     0.00002462     -1102.9893696132 -2.02E-05
    28 OT DIIS     0.80E-01   11.6     0.00001071     -1102.9894005882 -3.10E-05
    29 OT DIIS     0.80E-01   11.3     0.00001088     -1102.9894058039 -5.22E-06
    30 OT DIIS     0.80E-01   10.3     0.00000926     -1102.9894146970 -8.89E-06

  Leaving inner SCF loop after reaching    30 steps.


  Electronic density on regular grids:       -511.9999999887        0.0000000113
  Core density on regular grids:              512.9999999831       -0.0000000169
  Total charge density on r-space grids:        0.9999999944
  Total charge density g-space grids:           0.9999999944

  Overlap energy of the core charge distribution:               0.00000237129544
  Self energy of the core charge distribution:              -2839.62839375007934
  Core Hamiltonian energy:                                    829.85010087225987
  Hartree energy:                                            1178.86801241901230
  Exchange-correlation energy:                               -271.83013790072823
  Dispersion energy:                                           -0.24899870877419

  Total energy:                                             -1102.98941469701413

  outer SCF iter =    2 RMS gradient =   0.93E-05 energy =      -1102.9894146970

  ----------------------------------- OT ---------------------------------------
  Minimizer      : DIIS                : direct inversion
                                         in the iterative subspace
                                         using   7 DIIS vectors
                                         safer DIIS on
  Preconditioner : FULL_SINGLE_INVERSE : inversion of 
                                         H + eS - 2*(Sc)(c^T*H*c+const)(Sc)^T
  Precond_solver : DEFAULT
  stepsize       :    0.08000000                  energy_gap     :    0.08000000
  eps_taylor     :   0.10000E-15                  max_taylor     :             4
  ----------------------------------- OT ---------------------------------------

  Step     Update method      Time    Convergence         Total energy    Change
  ------------------------------------------------------------------------------
     1 OT DIIS     0.80E-01   26.9     0.00000833     -1102.9894174835 -2.79E-06
     2 OT DIIS     0.80E-01    6.0     0.00000954     -1102.9894190816 -1.60E-06
     3 OT DIIS     0.80E-01    6.3     0.00000731     -1102.9894198470 -7.65E-07
     4 OT DIIS     0.80E-01    6.8     0.00000716     -1102.9894217228 -1.88E-06
     5 OT DIIS     0.80E-01    7.6     0.00000617     -1102.9894272462 -5.52E-06
     6 OT DIIS     0.80E-01    7.7     0.00000540     -1102.9894312403 -3.99E-06
     7 OT DIIS     0.80E-01    7.6     0.00000511     -1102.9894330201 -1.78E-06
     8 OT DIIS     0.80E-01    7.6     0.00000484     -1102.9894356804 -2.66E-06
     9 OT DIIS     0.80E-01    7.4     0.00000444     -1102.9894382307 -2.55E-06
    10 OT DIIS     0.80E-01    7.5     0.00000388     -1102.9894430781 -4.85E-06
    11 OT DIIS     0.80E-01    7.5     0.00000387     -1102.9894444337 -1.36E-06
    12 OT DIIS     0.80E-01    7.7     0.00000367     -1102.9894456208 -1.19E-06
    13 OT DIIS     0.80E-01    7.2     0.00000338     -1102.9894466470 -1.03E-06
    14 OT DIIS     0.80E-01    7.1     0.00000328     -1102.9894481425 -1.50E-06
    15 OT DIIS     0.80E-01    7.2     0.00000322     -1102.9894487417 -5.99E-07
    16 OT DIIS     0.80E-01    7.1     0.00000319     -1102.9894494382 -6.96E-07
    17 OT DIIS     0.80E-01    7.1     0.00000319     -1102.9894497856 -3.47E-07
    18 OT SD       0.80E-01    6.9     0.00000318     -1102.9894500432 -2.58E-07
    19 OT SD       0.80E-01    7.1     0.00000320     -1102.9894503501 -3.07E-07
    20 OT SD       0.80E-01    7.2     0.00000322     -1102.9894506589 -3.09E-07
    21 OT SD       0.80E-01    7.1     0.00000328     -1102.9894509697 -3.11E-07
    22 OT SD       0.80E-01    7.2     0.00000351     -1102.9894512789 -3.09E-07
    23 OT SD       0.80E-01    7.2     0.00000447     -1102.9894515645 -2.86E-07
    24 OT SD       0.80E-01    8.9     0.00000782     -1102.9894517038 -1.39E-07
    25 OT SD       0.80E-01    8.5     0.00001699     -1102.9894510101  6.94E-07
    26 OT SD       0.80E-01    7.4     0.00003962     -1102.9894456168  5.39E-06
    27 OT DIIS     0.80E-01    7.4     0.00009388     -1102.9894135144  3.21E-05
    28 OT DIIS     0.80E-01    7.2     0.00000780     -1102.9894386900 -2.52E-05
    29 OT DIIS     0.80E-01    7.1     0.00000461     -1102.9894414638 -2.77E-06
    30 OT DIIS     0.80E-01    7.1     0.00000532     -1102.9894414375  2.62E-08

  Leaving inner SCF loop after reaching    30 steps.


  Electronic density on regular grids:       -511.9999999887        0.0000000113
  Core density on regular grids:              512.9999999831       -0.0000000169
  Total charge density on r-space grids:        0.9999999944
  Total charge density g-space grids:           0.9999999944

  Overlap energy of the core charge distribution:               0.00000237129544
  Self energy of the core charge distribution:              -2839.62839375007934
  Core Hamiltonian energy:                                    829.84945243754476
  Hartree energy:                                            1178.86856301709622
  Exchange-correlation energy:                               -271.83006680461756
  Dispersion energy:                                           -0.24899870877419

  Total energy:                                             -1102.98944143753488

  outer SCF iter =    3 RMS gradient =   0.53E-05 energy =      -1102.9894414375

  ----------------------------------- OT ---------------------------------------
  Minimizer      : DIIS                : direct inversion
                                         in the iterative subspace
                                         using   7 DIIS vectors
                                         safer DIIS on
  Preconditioner : FULL_SINGLE_INVERSE : inversion of 
                                         H + eS - 2*(Sc)(c^T*H*c+const)(Sc)^T
  Precond_solver : DEFAULT
  stepsize       :    0.08000000                  energy_gap     :    0.08000000
  eps_taylor     :   0.10000E-15                  max_taylor     :             4
  ----------------------------------- OT ---------------------------------------

  Step     Update method      Time    Convergence         Total energy    Change
  ------------------------------------------------------------------------------
     1 OT DIIS     0.80E-01   24.1     0.00000338     -1102.9894489842 -7.55E-06
     2 OT DIIS     0.80E-01    5.5     0.00000408     -1102.9894492564 -2.72E-07
     3 OT DIIS     0.80E-01    5.7     0.00000316     -1102.9894493849 -1.29E-07
     4 OT SD       0.80E-01    6.2     0.00000314     -1102.9894494827 -9.78E-08
     5 OT SD       0.80E-01    6.3     0.00000315     -1102.9894497807 -2.98E-07
     6 OT SD       0.80E-01    6.3     0.00000316     -1102.9894500806 -3.00E-07
     7 OT SD       0.80E-01    6.5     0.00000319     -1102.9894503826 -3.02E-07
     8 OT SD       0.80E-01    6.1     0.00000329     -1102.9894506857 -3.03E-07
     9 OT SD       0.80E-01    6.4     0.00000373     -1102.9894509814 -2.96E-07
    10 OT SD       0.80E-01    7.0     0.00000558     -1102.9894512187 -2.37E-07
    11 OT SD       0.80E-01    6.4     0.00001137     -1102.9894511008  1.18E-07
    12 OT SD       0.80E-01    7.1     0.00002643     -1102.9894489022  2.20E-06
    13 OT DIIS     0.80E-01    6.5     0.00006350     -1102.9894345147  1.44E-05
    14 OT DIIS     0.80E-01    7.4     0.00000759     -1102.9894381883 -3.67E-06
    15 OT DIIS     0.80E-01    7.3     0.00000714     -1102.9894392783 -1.09E-06
    16 OT DIIS     0.80E-01    7.3     0.00000457     -1102.9894409242 -1.65E-06
    17 OT DIIS     0.80E-01    6.8     0.00000381     -1102.9894455921 -4.67E-06
    18 OT SD       0.80E-01    6.1     0.00000332     -1102.9894495281 -3.94E-06
    19 OT SD       0.80E-01    6.3     0.00000353     -1102.9894498242 -2.96E-07
    20 OT SD       0.80E-01    6.2     0.00000417     -1102.9894501036 -2.79E-07
    21 OT DIIS     0.80E-01    6.3     0.00000609     -1102.9894503146 -2.11E-07
    22 OT DIIS     0.80E-01    7.1     0.00000531     -1102.9894531637 -2.85E-06
    23 OT SD       0.80E-01    7.3     0.00000564     -1102.9894558264 -2.66E-06
    24 OT SD       0.80E-01    6.9     0.00000526     -1102.9894563864 -5.60E-07
    25 OT SD       0.80E-01    6.8     0.00000715     -1102.9894567208 -3.34E-07
    26 OT SD       0.80E-01    7.0     0.00001186     -1102.9894567221 -1.33E-09
    27 OT SD       0.80E-01    7.2     0.00002218     -1102.9894554240  1.30E-06
    28 OT DIIS     0.80E-01    7.3     0.00004404     -1102.9894487251  6.70E-06
    29 OT DIIS     0.80E-01    6.3     0.00000372     -1102.9894498901 -1.16E-06
    30 OT SD       0.80E-01    6.2     0.00000388     -1102.9894511145 -1.22E-06

  Leaving inner SCF loop after reaching    30 steps.


  Electronic density on regular grids:       -511.9999999886        0.0000000114
  Core density on regular grids:              512.9999999831       -0.0000000169
  Total charge density on r-space grids:        0.9999999945
  Total charge density g-space grids:           0.9999999945

  Overlap energy of the core charge distribution:               0.00000237129544
  Self energy of the core charge distribution:              -2839.62839375007934
  Core Hamiltonian energy:                                    829.84950631469769
  Hartree energy:                                            1178.86858917897916
  Exchange-correlation energy:                               -271.83015652065546
  Dispersion energy:                                           -0.24899870877419

  Total energy:                                             -1102.98945111453668

  outer SCF iter =    4 RMS gradient =   0.39E-05 energy =      -1102.9894511145

  ----------------------------------- OT ---------------------------------------
  Minimizer      : DIIS                : direct inversion
                                         in the iterative subspace
                                         using   7 DIIS vectors
                                         safer DIIS on
  Preconditioner : FULL_SINGLE_INVERSE : inversion of 
                                         H + eS - 2*(Sc)(c^T*H*c+const)(Sc)^T
  Precond_solver : DEFAULT
  stepsize       :    0.08000000                  energy_gap     :    0.08000000
  eps_taylor     :   0.10000E-15                  max_taylor     :             4
  ----------------------------------- OT ---------------------------------------

  Step     Update method      Time    Convergence         Total energy    Change
  ------------------------------------------------------------------------------
     1 OT DIIS     0.80E-01   20.4     0.00000501     -1102.9894513768 -2.62E-07
     2 OT DIIS     0.80E-01    6.0     0.00000802     -1102.9894514922 -1.15E-07
     3 OT DIIS     0.80E-01    6.0     0.00000333     -1102.9894518729 -3.81E-07
     4 OT SD       0.80E-01    6.0     0.00000323     -1102.9894519761 -1.03E-07
     5 OT SD       0.80E-01    5.9     0.00000326     -1102.9894522931 -3.17E-07
     6 OT SD       0.80E-01    6.6     0.00000331     -1102.9894526141 -3.21E-07
     7 OT SD       0.80E-01    6.1     0.00000346     -1102.9894529376 -3.24E-07
     8 OT SD       0.80E-01    6.6     0.00000417     -1102.9894532489 -3.11E-07
     9 OT SD       0.80E-01    6.7     0.00000714     -1102.9894534474 -1.98E-07
    10 OT SD       0.80E-01    7.1     0.00001641     -1102.9894528702  5.77E-07
    11 OT SD       0.80E-01    6.7     0.00004138     -1102.9894471326  5.74E-06
    12 OT DIIS     0.80E-01    7.4     0.00010597     -1102.9894070773  4.01E-05
    13 OT DIIS     0.80E-01    7.3     0.00000931     -1102.9894368114 -2.97E-05
    14 OT DIIS     0.80E-01    7.1     0.00000749     -1102.9894396733 -2.86E-06
    15 OT DIIS     0.80E-01    7.1     0.00000637     -1102.9894403605 -6.87E-07
    16 OT DIIS     0.80E-01    6.8     0.00000408     -1102.9894462543 -5.89E-06
    17 OT SD       0.80E-01    6.1     0.00000348     -1102.9894503719 -4.12E-06
    18 OT SD       0.80E-01    6.0     0.00000390     -1102.9894506655 -2.94E-07
    19 OT SD       0.80E-01    6.1     0.00000546     -1102.9894508992 -2.34E-07
    20 OT DIIS     0.80E-01    6.5     0.00000982     -1102.9894508856  1.36E-08
    21 OT DIIS     0.80E-01    6.3     0.00000367     -1102.9894516235 -7.38E-07
    22 OT SD       0.80E-01    6.4     0.00000463     -1102.9894539567 -2.33E-06
    23 OT SD       0.80E-01    7.2     0.00000591     -1102.9894543033 -3.47E-07
    24 OT SD       0.80E-01    7.5     0.00001139     -1102.9894542679  3.53E-08
    25 OT SD       0.80E-01    7.4     0.00002662     -1102.9894521458  2.12E-06
    26 OT DIIS     0.80E-01    6.6     0.00006613     -1102.9894368613  1.53E-05
    27 OT DIIS     0.80E-01    7.3     0.00000474     -1102.9894418212 -4.96E-06
    28 OT DIIS     0.80E-01    7.4     0.00000406     -1102.9894429380 -1.12E-06
    29 OT SD       0.80E-01    7.5     0.00000335     -1102.9894451278 -2.19E-06
    30 OT SD       0.80E-01    7.2     0.00000428     -1102.9894453520 -2.24E-07

  Leaving inner SCF loop after reaching    30 steps.


  Electronic density on regular grids:       -511.9999999887        0.0000000113
  Core density on regular grids:              512.9999999831       -0.0000000169
  Total charge density on r-space grids:        0.9999999944
  Total charge density g-space grids:           0.9999999944

  Overlap energy of the core charge distribution:               0.00000237129544
  Self energy of the core charge distribution:              -2839.62839375007934
  Core Hamiltonian energy:                                    829.84946649722372
  Hartree energy:                                            1178.86860254147450
  Exchange-correlation energy:                               -271.83012430315932
  Dispersion energy:                                           -0.24899870877419

  Total energy:                                             -1102.98944535201917

  outer SCF iter =    5 RMS gradient =   0.43E-05 energy =      -1102.9894453520

  ----------------------------------- OT ---------------------------------------
  Minimizer      : DIIS                : direct inversion
                                         in the iterative subspace
                                         using   7 DIIS vectors
                                         safer DIIS on
  Preconditioner : FULL_SINGLE_INVERSE : inversion of 
                                         H + eS - 2*(Sc)(c^T*H*c+const)(Sc)^T
  Precond_solver : DEFAULT
  stepsize       :    0.08000000                  energy_gap     :    0.08000000
  eps_taylor     :   0.10000E-15                  max_taylor     :             4
  ----------------------------------- OT ---------------------------------------

  Step     Update method      Time    Convergence         Total energy    Change
  ------------------------------------------------------------------------------
     1 OT DIIS     0.80E-01   20.1     0.00000742     -1102.9894454292 -7.72E-08
     2 OT DIIS     0.80E-01    5.8     0.00001544     -1102.9894448221  6.07E-07
     3 OT DIIS     0.80E-01    5.6     0.00000300     -1102.9894459709 -1.15E-06
     4 OT DIIS     0.80E-01    5.9     0.00000284     -1102.9894460616 -9.06E-08
     5 OT DIIS     0.80E-01    5.8     0.00000286     -1102.9894465385 -4.77E-07
     6 OT SD       0.80E-01    6.0     0.00000284     -1102.9894474310 -8.93E-07
     7 OT SD       0.80E-01    6.9     0.00000287     -1102.9894476733 -2.42E-07
     8 OT SD       0.80E-01    7.3     0.00000302     -1102.9894479139 -2.41E-07
     9 OT SD       0.80E-01    7.5     0.00000380     -1102.9894481370 -2.23E-07
    10 OT SD       0.80E-01    7.3     0.00000691     -1102.9894482418 -1.05E-07
    11 OT SD       0.80E-01    6.9     0.00001619     -1102.9894475765  6.65E-07
    12 OT DIIS     0.80E-01    6.5     0.00004071     -1102.9894419002  5.68E-06
    13 OT DIIS     0.80E-01    7.2     0.00000504     -1102.9894386473  3.25E-06
    14 OT SD       0.80E-01    7.2     0.00000463     -1102.9894387855 -1.38E-07
    15 OT DIIS     0.80E-01    7.8     0.00000431     -1102.9894391807 -3.95E-07
    16 OT DIIS     0.80E-01    7.4     0.00000330     -1102.9894486730 -9.49E-06
    17 OT SD       0.80E-01    7.4     0.00000443     -1102.9894548612 -6.19E-06
    18 OT SD       0.80E-01    7.7     0.00000439     -1102.9894552752 -4.14E-07
    19 OT SD       0.80E-01    7.8     0.00000592     -1102.9894555840 -3.09E-07
    20 OT SD       0.80E-01    7.1     0.00001043     -1102.9894556300 -4.61E-08
    21 OT SD       0.80E-01    7.0     0.00002200     -1102.9894543100  1.32E-06
    22 OT SD       0.80E-01    7.0     0.00005005     -1102.9894455802  8.73E-06
    23 OT DIIS     0.80E-01    6.9     0.00011699     -1102.9893956453  4.99E-05
    24 OT DIIS     0.80E-01    6.2     0.00000438     -1102.9894465040 -5.09E-05
    25 OT DIIS     0.80E-01    6.3     0.00000424     -1102.9894467904 -2.86E-07
    26 OT SD       0.80E-01    7.0     0.00000376     -1102.9894485642 -1.77E-06
    27 OT SD       0.80E-01    7.1     0.00000521     -1102.9894487761 -2.12E-07
    28 OT SD       0.80E-01    7.0     0.00001057     -1102.9894486537  1.22E-07
    29 OT DIIS     0.80E-01    6.2     0.00002515     -1102.9894466470  2.01E-06
    30 OT SD       0.80E-01    7.1     0.00000283     -1102.9894488683 -2.22E-06

  Leaving inner SCF loop after reaching    30 steps.


  Electronic density on regular grids:       -511.9999999887        0.0000000113
  Core density on regular grids:              512.9999999831       -0.0000000169
  Total charge density on r-space grids:        0.9999999944
  Total charge density g-space grids:           0.9999999944

  Overlap energy of the core charge distribution:               0.00000237129544
  Self energy of the core charge distribution:              -2839.62839375007934
  Core Hamiltonian energy:                                    829.84963430953030
  Hartree energy:                                            1178.86849306675094
  Exchange-correlation energy:                               -271.83018615703691
  Dispersion energy:                                           -0.24899870877419

  Total energy:                                             -1102.98944886831373

  outer SCF iter =    6 RMS gradient =   0.28E-05 energy =      -1102.9894488683

  ----------------------------------- OT ---------------------------------------
  Minimizer      : DIIS                : direct inversion
                                         in the iterative subspace
                                         using   7 DIIS vectors
                                         safer DIIS on
  Preconditioner : FULL_SINGLE_INVERSE : inversion of 
                                         H + eS - 2*(Sc)(c^T*H*c+const)(Sc)^T
  Precond_solver : DEFAULT
  stepsize       :    0.08000000                  energy_gap     :    0.08000000
  eps_taylor     :   0.10000E-15                  max_taylor     :             4
  ----------------------------------- OT ---------------------------------------

  Step     Update method      Time    Convergence         Total energy    Change
  ------------------------------------------------------------------------------
     1 OT DIIS     0.80E-01   22.4     0.00000287     -1102.9894491070 -2.39E-07
     2 OT DIIS     0.80E-01    6.7     0.00000304     -1102.9894493443 -2.37E-07
     3 OT SD       0.80E-01    6.2     0.00000285     -1102.9894494263 -8.20E-08
     4 OT SD       0.80E-01    6.3     0.00000287     -1102.9894496714 -2.45E-07
     5 OT SD       0.80E-01    6.4     0.00000292     -1102.9894499191 -2.48E-07
     6 OT SD       0.80E-01    6.4     0.00000313     -1102.9894501662 -2.47E-07
     7 OT SD       0.80E-01    6.5     0.00000411     -1102.9894503922 -2.26E-07
     8 OT SD       0.80E-01    6.3     0.00000783     -1102.9894504631 -7.10E-08
     9 OT SD       0.80E-01    6.3     0.00001865     -1102.9894495096  9.54E-07
    10 OT SD       0.80E-01    7.0     0.00004710     -1102.9894418265  7.68E-06
    11 OT DIIS     0.80E-01    6.5     0.00012093     -1102.9893897882  5.20E-05
    12 OT DIIS     0.80E-01    7.3     0.00001269     -1102.9894292306 -3.94E-05
    13 OT DIIS     0.80E-01    6.7     0.00001140     -1102.9894304711 -1.24E-06
    14 OT DIIS     0.80E-01    6.5     0.00001100     -1102.9894319607 -1.49E-06
    15 OT DIIS     0.80E-01    6.0     0.00000347     -1102.9894473333 -1.54E-05
    16 OT SD       0.80E-01    6.2     0.00000375     -1102.9894505389 -3.21E-06
    17 OT SD       0.80E-01    6.4     0.00000559     -1102.9894507264 -1.88E-07
    18 OT SD       0.80E-01    6.6     0.00001106     -1102.9894505771  1.49E-07
    19 OT DIIS     0.80E-01    6.3     0.00002466     -1102.9894486374  1.94E-06
    20 OT SD       0.80E-01    6.9     0.00000736     -1102.9894555349 -6.90E-06
    21 OT SD       0.80E-01    7.2     0.00000598     -1102.9894562817 -7.47E-07
    22 OT SD       0.80E-01    6.9     0.00000805     -1102.9894565588 -2.77E-07
    23 OT SD       0.80E-01    7.1     0.00001342     -1102.9894564114  1.47E-07
    24 OT SD       0.80E-01    6.9     0.00002689     -1102.9894543367  2.07E-06
    25 OT DIIS     0.80E-01    6.8     0.00006144     -1102.9894413455  1.30E-05
    26 OT SD       0.80E-01    7.2     0.00000373     -1102.9894561010 -1.48E-05
    27 OT SD       0.80E-01    7.4     0.00000403     -1102.9894564946 -3.94E-07
    28 OT SD       0.80E-01    7.3     0.00000515     -1102.9894568608 -3.66E-07
    29 OT SD       0.80E-01    7.5     0.00000874     -1102.9894570563 -1.95E-07
    30 OT SD       0.80E-01    7.4     0.00001835     -1102.9894563079  7.48E-07

  Leaving inner SCF loop after reaching    30 steps.


  Electronic density on regular grids:       -511.9999999887        0.0000000113
  Core density on regular grids:              512.9999999831       -0.0000000169
  Total charge density on r-space grids:        0.9999999944
  Total charge density g-space grids:           0.9999999944

  Overlap energy of the core charge distribution:               0.00000237129544
  Self energy of the core charge distribution:              -2839.62839375007934
  Core Hamiltonian energy:                                    829.84763195918686
  Hartree energy:                                            1178.87009800222904
  Exchange-correlation energy:                               -271.82979618178962
  Dispersion energy:                                           -0.24899870877419

  Total energy:                                             -1102.98945630793173

  outer SCF iter =    7 RMS gradient =   0.18E-04 energy =      -1102.9894563079

  ----------------------------------- OT ---------------------------------------
  Minimizer      : DIIS                : direct inversion
                                         in the iterative subspace
                                         using   7 DIIS vectors
                                         safer DIIS on
  Preconditioner : FULL_SINGLE_INVERSE : inversion of 
                                         H + eS - 2*(Sc)(c^T*H*c+const)(Sc)^T
  Precond_solver : DEFAULT
  stepsize       :    0.08000000                  energy_gap     :    0.08000000
  eps_taylor     :   0.10000E-15                  max_taylor     :             4
  ----------------------------------- OT ---------------------------------------

  Step     Update method      Time    Convergence         Total energy    Change
  ------------------------------------------------------------------------------
     1 OT DIIS     0.80E-01   22.8     0.00004187     -1102.9894503668  5.94E-06
     2 OT DIIS     0.80E-01    6.7     0.00009873     -1102.9894152123  3.52E-05
     3 OT DIIS     0.80E-01    5.8     0.00000690     -1102.9894587000 -4.35E-05
     4 OT SD       0.80E-01    6.3     0.00000405     -1102.9894589992 -2.99E-07
     5 OT SD       0.80E-01    6.3     0.00000422     -1102.9894594915 -4.92E-07
     6 OT SD       0.80E-01    6.6     0.00000473     -1102.9894599872 -4.96E-07
     7 OT SD       0.80E-01    7.1     0.00000675     -1102.9894604194 -4.32E-07
     8 OT SD       0.80E-01    7.4     0.00001327     -1102.9894603970  2.24E-08
     9 OT SD       0.80E-01    7.1     0.00003068     -1102.9894576051  2.79E-06
    10 OT DIIS     0.80E-01    6.3     0.00007441     -1102.9894381410  1.95E-05
    11 OT SD       0.80E-01    7.2     0.00001188     -1102.9894387234 -5.82E-07
    12 OT DIIS     0.80E-01    6.6     0.00000763     -1102.9894403475 -1.62E-06
    13 OT DIIS     0.80E-01    6.7     0.00001187     -1102.9894387325  1.61E-06
    14 OT DIIS     0.80E-01    6.4     0.00000562     -1102.9894461945 -7.46E-06
    15 OT SD       0.80E-01    7.0     0.00000403     -1102.9894501300 -3.94E-06
    16 OT SD       0.80E-01    6.6     0.00000552     -1102.9894503300 -2.00E-07
    17 OT SD       0.80E-01    6.8     0.00001063     -1102.9894502075  1.22E-07
    18 OT DIIS     0.80E-01    6.6     0.00002380     -1102.9894484305  1.78E-06
    19 OT SD       0.80E-01    6.7     0.00000295     -1102.9894490997 -6.69E-07
    20 OT SD       0.80E-01    6.9     0.00000336     -1102.9894493208 -2.21E-07
    21 OT SD       0.80E-01    7.0     0.00000498     -1102.9894494957 -1.75E-07
    22 OT SD       0.80E-01    6.7     0.00001018     -1102.9894493898  1.06E-07
    23 OT DIIS     0.80E-01    6.5     0.00002431     -1102.9894475279  1.86E-06
    24 OT DIIS     0.80E-01    7.1     0.00000279     -1102.9894461176  1.41E-06
    25 OT SD       0.80E-01    7.0     0.00000280     -1102.9894462398 -1.22E-07
    26 OT SD       0.80E-01    7.1     0.00000286     -1102.9894464592 -2.19E-07
    27 OT SD       0.80E-01    7.0     0.00000337     -1102.9894466581 -1.99E-07
    28 OT SD       0.80E-01    7.0     0.00000521     -1102.9894467958 -1.38E-07
    29 OT DIIS     0.80E-01    7.2     0.00001030     -1102.9894466399  1.56E-07
    30 OT SD       0.80E-01    7.1     0.00000264     -1102.9894469199 -2.80E-07

  Leaving inner SCF loop after reaching    30 steps.


  Electronic density on regular grids:       -511.9999999887        0.0000000113
  Core density on regular grids:              512.9999999831       -0.0000000169
  Total charge density on r-space grids:        0.9999999944
  Total charge density g-space grids:           0.9999999944

  Overlap energy of the core charge distribution:               0.00000237129544
  Self energy of the core charge distribution:              -2839.62839375007934
  Core Hamiltonian energy:                                    829.84974179632127
  Hartree energy:                                            1178.86840195755599
  Exchange-correlation energy:                               -271.83020058620821
  Dispersion energy:                                           -0.24899870877419

  Total energy:                                             -1102.98944691988891

  outer SCF iter =    8 RMS gradient =   0.26E-05 energy =      -1102.9894469199

  ----------------------------------- OT ---------------------------------------
  Minimizer      : DIIS                : direct inversion
                                         in the iterative subspace
                                         using   7 DIIS vectors
                                         safer DIIS on
  Preconditioner : FULL_SINGLE_INVERSE : inversion of 
                                         H + eS - 2*(Sc)(c^T*H*c+const)(Sc)^T
  Precond_solver : DEFAULT
  stepsize       :    0.08000000                  energy_gap     :    0.08000000
  eps_taylor     :   0.10000E-15                  max_taylor     :             4
  ----------------------------------- OT ---------------------------------------

  Step     Update method      Time    Convergence         Total energy    Change
  ------------------------------------------------------------------------------
     1 OT DIIS     0.80E-01   25.5     0.00000268     -1102.9894471282 -2.08E-07
     2 OT DIIS     0.80E-01    6.6     0.00000280     -1102.9894473351 -2.07E-07
     3 OT SD       0.80E-01    6.6     0.00000265     -1102.9894474099 -7.48E-08
     4 OT SD       0.80E-01    6.1     0.00000266     -1102.9894476215 -2.12E-07
     5 OT SD       0.80E-01    6.5     0.00000273     -1102.9894478337 -2.12E-07
     6 OT SD       0.80E-01    6.2     0.00000304     -1102.9894480415 -2.08E-07
     7 OT SD       0.80E-01    6.2     0.00000457     -1102.9894482097 -1.68E-07
     8 OT SD       0.80E-01    6.1     0.00000988     -1102.9894481053  1.04E-07
     9 OT SD       0.80E-01    6.6     0.00002467     -1102.9894461721  1.93E-06
    10 OT DIIS     0.80E-01    7.4     0.00006329     -1102.9894320173  1.42E-05
    11 OT DIIS     0.80E-01    7.1     0.00001769     -1102.9894187928  1.32E-05
    12 OT DIIS     0.80E-01    7.2     0.00001144     -1102.9894285692 -9.78E-06
    13 OT DIIS     0.80E-01    7.1     0.00001091     -1102.9894288580 -2.89E-07
    14 OT DIIS     0.80E-01    7.4     0.00000729     -1102.9894349941 -6.14E-06
    15 OT SD       0.80E-01    7.6     0.00000337     -1102.9894444058 -9.41E-06
    16 OT SD       0.80E-01    7.4     0.00000393     -1102.9894446116 -2.06E-07
    17 OT SD       0.80E-01    7.3     0.00000622     -1102.9894447087 -9.70E-08
    18 OT DIIS     0.80E-01    6.4     0.00001194     -1102.9894444174  2.91E-07
    19 OT DIIS     0.80E-01    6.4     0.00000502     -1102.9894466439 -2.23E-06
    20 OT DIIS     0.80E-01    7.1     0.00000539     -1102.9894485867 -1.94E-06
    21 OT SD       0.80E-01    8.0     0.00000812     -1102.9894579434 -9.36E-06
    22 OT SD       0.80E-01    7.4     0.00000639     -1102.9894588828 -9.39E-07
    23 OT SD       0.80E-01    7.3     0.00000782     -1102.9894593090 -4.26E-07
    24 OT SD       0.80E-01    7.1     0.00001131     -1102.9894594770 -1.68E-07
    25 OT SD       0.80E-01    7.5     0.00001909     -1102.9894588158  6.61E-07
    26 OT SD       0.80E-01    7.5     0.00003733     -1102.9894544726  4.34E-06
    27 OT DIIS     0.80E-01    7.3     0.00008242     -1102.9894307850  2.37E-05
    28 OT SD       0.80E-01    7.4     0.00000402     -1102.9894565286 -2.57E-05
    29 OT SD       0.80E-01    7.3     0.00000447     -1102.9894569527 -4.24E-07
    30 OT SD       0.80E-01    7.2     0.00000637     -1102.9894572998 -3.47E-07

  Leaving inner SCF loop after reaching    30 steps.


  Electronic density on regular grids:       -511.9999999887        0.0000000113
  Core density on regular grids:              512.9999999831       -0.0000000169
  Total charge density on r-space grids:        0.9999999944
  Total charge density g-space grids:           0.9999999944

  Overlap energy of the core charge distribution:               0.00000237129544
  Self energy of the core charge distribution:              -2839.62839375007934
  Core Hamiltonian energy:                                    829.84856209449663
  Hartree energy:                                            1178.86936079434895
  Exchange-correlation energy:                               -271.82999010108205
  Dispersion energy:                                           -0.24899870877419

  Total energy:                                             -1102.98945729979459

  outer SCF iter =    9 RMS gradient =   0.64E-05 energy =      -1102.9894572998

  ----------------------------------- OT ---------------------------------------
  Minimizer      : DIIS                : direct inversion
                                         in the iterative subspace
                                         using   7 DIIS vectors
                                         safer DIIS on
  Preconditioner : FULL_SINGLE_INVERSE : inversion of 
                                         H + eS - 2*(Sc)(c^T*H*c+const)(Sc)^T
  Precond_solver : DEFAULT
  stepsize       :    0.08000000                  energy_gap     :    0.08000000
  eps_taylor     :   0.10000E-15                  max_taylor     :             4
  ----------------------------------- OT ---------------------------------------

  Step     Update method      Time    Convergence         Total energy    Change
  ------------------------------------------------------------------------------
     1 OT DIIS     0.80E-01   23.9     0.00001240     -1102.9894572438  5.60E-08
     2 OT DIIS     0.80E-01    6.1     0.00002869     -1102.9894547777  2.47E-06
     3 OT DIIS     0.80E-01    6.4     0.00000443     -1102.9894584437 -3.67E-06
     4 OT SD       0.80E-01    6.7     0.00000398     -1102.9894586146 -1.71E-07
     5 OT SD       0.80E-01    5.7     0.00000406     -1102.9894590959 -4.81E-07
     6 OT SD       0.80E-01    6.5     0.00000417     -1102.9894595920 -4.96E-07
     7 OT SD       0.80E-01    6.0     0.00000446     -1102.9894600991 -5.07E-07
     8 OT SD       0.80E-01    6.2     0.00000544     -1102.9894605917 -4.93E-07
     9 OT SD       0.80E-01    7.5     0.00000881     -1102.9894609298 -3.38E-07
    10 OT SD       0.80E-01    6.6     0.00001822     -1102.9894603521  5.78E-07
    11 OT SD       0.80E-01    7.0     0.00004142     -1102.9894546967  5.66E-06
    12 OT DIIS     0.80E-01    6.9     0.00009635     -1102.9894210145  3.37E-05
    13 OT SD       0.80E-01    7.1     0.00001129     -1102.9894405779 -1.96E-05
    14 OT DIIS     0.80E-01    8.2     0.00000787     -1102.9894419666 -1.39E-06
    15 OT DIIS     0.80E-01    7.4     0.00001084     -1102.9894406215  1.35E-06
    16 OT SD       0.80E-01    7.0     0.00000634     -1102.9894533463 -1.27E-05
    17 OT SD       0.80E-01    7.1     0.00000958     -1102.9894535067 -1.60E-07
    18 OT DIIS     0.80E-01    6.8     0.00001987     -1102.9894524975  1.01E-06
    19 OT SD       0.80E-01    7.1     0.00000367     -1102.9894553323 -2.83E-06
    20 OT DIIS     0.80E-01    7.3     0.00000380     -1102.9894557120 -3.80E-07
    21 OT SD       0.80E-01    6.4     0.00000750     -1102.9894615724 -5.86E-06
    22 OT SD       0.80E-01    7.3     0.00000611     -1102.9894625673 -9.95E-07
    23 OT SD       0.80E-01    7.4     0.00000749     -1102.9894631697 -6.02E-07
    24 OT SD       0.80E-01    8.2     0.00001159     -1102.9894634715 -3.02E-07
    25 OT SD       0.80E-01    7.5     0.00002170     -1102.9894625586  9.13E-07
    26 OT SD       0.80E-01    7.7     0.00004555     -1102.9894557711  6.79E-06
    27 OT DIIS     0.80E-01    6.4     0.00010128     -1102.9894187873  3.70E-05
    28 OT SD       0.80E-01    6.4     0.00000469     -1102.9894589754 -4.02E-05
    29 OT SD       0.80E-01    6.6     0.00000560     -1102.9894595014 -5.26E-07
    30 OT SD       0.80E-01    5.9     0.00000949     -1102.9894598059 -3.04E-07

  Leaving inner SCF loop after reaching    30 steps.


  Electronic density on regular grids:       -511.9999999886        0.0000000114
  Core density on regular grids:              512.9999999831       -0.0000000169
  Total charge density on r-space grids:        0.9999999945
  Total charge density g-space grids:           0.9999999945

  Overlap energy of the core charge distribution:               0.00000237129544
  Self energy of the core charge distribution:              -2839.62839375007934
  Core Hamiltonian energy:                                    829.84955341514285
  Hartree energy:                                            1178.86857221463833
  Exchange-correlation energy:                               -271.83019534808830
  Dispersion energy:                                           -0.24899870877419

  Total energy:                                             -1102.98945980586495

  outer SCF iter =   10 RMS gradient =   0.95E-05 energy =      -1102.9894598059

  ----------------------------------- OT ---------------------------------------
  Minimizer      : DIIS                : direct inversion
                                         in the iterative subspace
                                         using   7 DIIS vectors
                                         safer DIIS on
  Preconditioner : FULL_SINGLE_INVERSE : inversion of 
                                         H + eS - 2*(Sc)(c^T*H*c+const)(Sc)^T
  Precond_solver : DEFAULT
  stepsize       :    0.08000000                  energy_gap     :    0.08000000
  eps_taylor     :   0.10000E-15                  max_taylor     :             4
  ----------------------------------- OT ---------------------------------------

  Step     Update method      Time    Convergence         Total energy    Change
  ------------------------------------------------------------------------------
     1 OT DIIS     0.80E-01   25.2     0.00002138     -1102.9894587966  1.01E-06
     2 OT DIIS     0.80E-01    7.7     0.00005312     -1102.9894492839  9.51E-06
     3 OT DIIS     0.80E-01    6.1     0.00000496     -1102.9894614026 -1.21E-05
     4 OT SD       0.80E-01    6.3     0.00000446     -1102.9894616314 -2.29E-07
     5 OT SD       0.80E-01    7.1     0.00000454     -1102.9894622354 -6.04E-07
     6 OT SD       0.80E-01    7.0     0.00000465     -1102.9894628594 -6.24E-07
     7 OT SD       0.80E-01    6.9     0.00000485     -1102.9894635026 -6.43E-07
     8 OT SD       0.80E-01    7.1     0.00000549     -1102.9894641502 -6.48E-07
     9 OT SD       0.80E-01    7.7     0.00000785     -1102.9894647130 -5.63E-07
    10 OT SD       0.80E-01    7.6     0.00001511     -1102.9894646935  1.95E-08
    11 OT SD       0.80E-01    7.3     0.00003379     -1102.9894613395  3.35E-06
    12 OT DIIS     0.80E-01    7.2     0.00007861     -1102.9894393715  2.20E-05
    13 OT DIIS     0.80E-01    7.3     0.00001231     -1102.9894421448 -2.77E-06
    14 OT DIIS     0.80E-01    7.9     0.00001122     -1102.9894425580 -4.13E-07
    15 OT DIIS     0.80E-01    7.4     0.00001057     -1102.9894428584 -3.00E-07
    16 OT DIIS     0.80E-01    7.2     0.00000781     -1102.9894478062 -4.95E-06
    17 OT SD       0.80E-01    6.5     0.00000520     -1102.9894602583 -1.25E-05
    18 OT SD       0.80E-01    6.3     0.00000655     -1102.9894607358 -4.77E-07
    19 OT SD       0.80E-01    6.8     0.00000974     -1102.9894610357 -3.00E-07
    20 OT SD       0.80E-01    6.2     0.00001658     -1102.9894606951  3.41E-07
    21 OT SD       0.80E-01    6.9     0.00003097     -1102.9894578574  2.84E-06
    22 OT DIIS     0.80E-01    7.3     0.00006223     -1102.9894443595  1.35E-05
    23 OT DIIS     0.80E-01    7.3     0.00000429     -1102.9894490407 -4.68E-06
    24 OT DIIS     0.80E-01    7.1     0.00000424     -1102.9894503704 -1.33E-06
    25 OT DIIS     0.80E-01    7.5     0.00000432     -1102.9894512129 -8.43E-07
    26 OT SD       0.80E-01    7.3     0.00000367     -1102.9894521891 -9.76E-07
    27 OT SD       0.80E-01    7.3     0.00000408     -1102.9894525320 -3.43E-07
    28 OT SD       0.80E-01    7.0     0.00000589     -1102.9894527939 -2.62E-07
    29 OT SD       0.80E-01    7.2     0.00001166     -1102.9894526817  1.12E-07
    30 OT DIIS     0.80E-01    7.1     0.00002707     -1102.9894504016  2.28E-06

  Leaving inner SCF loop after reaching    30 steps.


  Electronic density on regular grids:       -511.9999999887        0.0000000113
  Core density on regular grids:              512.9999999831       -0.0000000169
  Total charge density on r-space grids:        0.9999999944
  Total charge density g-space grids:           0.9999999944

  Overlap energy of the core charge distribution:               0.00000237129544
  Self energy of the core charge distribution:              -2839.62839375007934
  Core Hamiltonian energy:                                    829.85051028768112
  Hartree energy:                                            1178.86780684027917
  Exchange-correlation energy:                               -271.83037744196440
  Dispersion energy:                                           -0.24899870877419

  Total energy:                                             -1102.98945040156218

  outer SCF iter =   11 RMS gradient =   0.27E-04 energy =      -1102.9894504016
  outer SCF loop FAILED to converge after   11 iterations or  330 steps


 *** WARNING in qs_scf.F:576 :: SCF run NOT converged ***

  
  Eigenvalues of the occupied subspace spin            1
 ---------------------------------------------
      -0.89270456     -0.86545519     -0.83899833     -0.82476836
      -0.81798798     -0.81698345     -0.81514591     -0.81124162
      -0.80735854     -0.80388084     -0.80342234     -0.80212162
      -0.80166130     -0.80096300     -0.80006020     -0.79624370
      -0.79520766     -0.79432061     -0.79372123     -0.79280235
      -0.79177978     -0.79129402     -0.79085606     -0.78797097
      -0.78770688     -0.78709872     -0.78589820     -0.78562791
      -0.78527519     -0.78396279     -0.78327161     -0.78280622
      -0.78134735     -0.78094415     -0.77957583     -0.77885398
      -0.77848801     -0.77687468     -0.77539321     -0.77444968
      -0.77387356     -0.77372479     -0.77269791     -0.77165435
      -0.77107577     -0.77036481     -0.76872314     -0.76727348
      -0.76641711     -0.76544283     -0.76508120     -0.76391370
      -0.76011777     -0.75899125     -0.75839160     -0.75693321
      -0.75350561     -0.75063283     -0.74893775     -0.74718815
      -0.74499312     -0.74393517     -0.74255769     -0.73755407
      -0.49971528     -0.42443446     -0.39062544     -0.38410714
      -0.37601884     -0.37514410     -0.37434237     -0.37367683
      -0.37049227     -0.36534165     -0.36304700     -0.36246073
      -0.36223067     -0.35949638     -0.35896251     -0.35861797
      -0.35783384     -0.35711625     -0.35577203     -0.35423219
      -0.35291326     -0.35222712     -0.35120121     -0.35014804
      -0.34932645     -0.34875855     -0.34780691     -0.34698537
      -0.34481376     -0.34413739     -0.34130806     -0.33790040
      -0.33730903     -0.33699997     -0.33577748     -0.33539398
      -0.33406606     -0.33355385     -0.33232720     -0.33168689
      -0.33102941     -0.33017803     -0.32921808     -0.32871451
      -0.32837816     -0.32659677     -0.32650597     -0.32573278
      -0.32509932     -0.32407883     -0.32356572     -0.32205473
      -0.32167634     -0.32095371     -0.31990251     -0.31901415
      -0.31672817     -0.31524528     -0.31425603     -0.31252652
      -0.31097260     -0.30446122     -0.30399774     -0.29294265
      -0.29080595     -0.28593288     -0.27410013     -0.26292509
      -0.25698428     -0.25427830     -0.25229698     -0.24906243
      -0.24751553     -0.24449105     -0.24356915     -0.24116760
      -0.23988956     -0.23870092     -0.23622660     -0.23416653
      -0.23201005     -0.23176250     -0.22915479     -0.22834282
      -0.22709992     -0.22448492     -0.22374339     -0.22300750
      -0.22228071     -0.21973363     -0.21900586     -0.21828668
      -0.21533634     -0.21426750     -0.21310504     -0.21126326
      -0.21046648     -0.20757282     -0.20421376     -0.20414678
      -0.20234569     -0.20176038     -0.20091801     -0.20008130
      -0.19952408     -0.19594942     -0.19477544     -0.19427105
      -0.19316870     -0.19207917     -0.19171185     -0.19073349
      -0.18811396     -0.18723953     -0.18651297     -0.18452330
      -0.18263099     -0.18025054     -0.17939106     -0.17888550
      -0.17731761     -0.17539225     -0.17467770     -0.17090067
      -0.16957942     -0.16794661     -0.16518765     -0.16393153
      -0.16205382     -0.15953303     -0.15708817     -0.15678106
      -0.15569751     -0.15154135     -0.14799030     -0.14761711
      -0.14638175     -0.14546446     -0.14485260     -0.14451465
      -0.14368235     -0.14236940     -0.14115501     -0.14048117
      -0.13851615     -0.13783100     -0.13758274     -0.13702273
      -0.13650322     -0.13517806     -0.13466033     -0.13365527
      -0.13241248     -0.13216597     -0.13152045     -0.13047716
      -0.12964988     -0.12948617     -0.12890004     -0.12882148
      -0.12738464     -0.12654590     -0.12556187     -0.12463698
      -0.12340903     -0.12323022     -0.12241362     -0.12179769
      -0.11917860     -0.11857357     -0.11812381     -0.11744238
      -0.11647300     -0.11567960     -0.11537199     -0.11395754
      -0.11238127     -0.11201835     -0.11131971     -0.11085308
      -0.11075964     -0.10966375     -0.10894083     -0.10794994
      -0.10676045     -0.10580105     -0.10555117     -0.10411179
      -0.10298771     -0.10192216     -0.10126533     -0.09602512
 Fermi Energy [eV] :   -2.612976
  
  Lowest Eigenvalues of the unoccupied subspace spin            1
 -----------------------------------------------------
  Reached convergence in           83  iterations 
      -0.10157321      0.07948069      0.11764882      0.12303189
  
 HOMO - LUMO gap [eV] :   -0.150971

 ENERGY| Total FORCE_EVAL ( QS ) energy [a.u.]:            -1102.989452160426708

 MD_INI| MD initialization
 MD_INI| Potential energy [hartree]                          -0.110298945216E+04
 MD_INI| Kinetic energy [hartree]                             0.275037912564E+00
 MD_INI| Temperature [K]                                              300.000000
 MD_INI| Cell volume [bohr^3]                                 1.292889458088E+04
 MD_INI| Cell volume [ang^3]                                  1.915864488000E+03
 MD_INI| Cell lengths [bohr]      2.34703986E+01  2.34703986E+01  2.34703986E+01
 MD_INI| Cell lengths [ang]       1.24200000E+01  1.24200000E+01  1.24200000E+01
 MD_INI| Cell angles [deg]        9.00000000E+01  9.00000000E+01  9.00000000E+01

 Number of electrons:                                                        512
 Number of occupied orbitals:                                                256
 Number of molecular orbitals:                                               256

 Number of orbital functions:                                               1477
 Number of independent orbital functions:                                   1477

 Extrapolation method: ASPC


 SCF WAVEFUNCTION OPTIMIZATION

  ----------------------------------- OT ---------------------------------------
  Minimizer      : DIIS                : direct inversion
                                         in the iterative subspace
                                         using   7 DIIS vectors
                                         safer DIIS on
  Preconditioner : FULL_SINGLE_INVERSE : inversion of 
                                         H + eS - 2*(Sc)(c^T*H*c+const)(Sc)^T
  Precond_solver : DEFAULT
  stepsize       :    0.08000000                  energy_gap     :    0.08000000
  eps_taylor     :   0.10000E-15                  max_taylor     :             4
  ----------------------------------- OT ---------------------------------------

  Step     Update method      Time    Convergence         Total energy    Change
  ------------------------------------------------------------------------------
     1 OT DIIS     0.80E-01   12.9     0.00034471     -1102.9901435803 -1.10E+03
     2 OT DIIS     0.80E-01    6.9     0.00021285     -1102.9928248865 -2.68E-03
     3 OT DIIS     0.80E-01    7.3     0.00024569     -1102.9937578049 -9.33E-04
     4 OT DIIS     0.80E-01    7.4     0.00012205     -1102.9942969592 -5.39E-04
     5 OT DIIS     0.80E-01    7.4     0.00006735     -1102.9944233080 -1.26E-04
     6 OT DIIS     0.80E-01    7.5     0.00002401     -1102.9944725418 -4.92E-05
     7 OT DIIS     0.80E-01    7.3     0.00002038     -1102.9944854822 -1.29E-05
     8 OT DIIS     0.80E-01    7.7     0.00000945     -1102.9944891623 -3.68E-06
     9 OT DIIS     0.80E-01    7.4     0.00000690     -1102.9944900641 -9.02E-07
    10 OT DIIS     0.80E-01    7.4     0.00000395     -1102.9944907131 -6.49E-07
    11 OT DIIS     0.80E-01    7.6     0.00000393     -1102.9944911651 -4.52E-07
    12 OT DIIS     0.80E-01    7.5     0.00000336     -1102.9944915791 -4.14E-07
    13 OT DIIS     0.80E-01    7.2     0.00000340     -1102.9944918456 -2.66E-07
    14 OT DIIS     0.80E-01    7.4     0.00000312     -1102.9944921707 -3.25E-07
    15 OT DIIS     0.80E-01    6.9     0.00000309     -1102.9944924672 -2.96E-07
    16 OT DIIS     0.80E-01    6.6     0.00000307     -1102.9944927766 -3.09E-07
    17 OT SD       0.80E-01    6.7     0.00000307     -1102.9944929903 -2.14E-07
    18 OT SD       0.80E-01    7.7     0.00000309     -1102.9944932756 -2.85E-07
    19 OT SD       0.80E-01    7.9     0.00000313     -1102.9944935644 -2.89E-07
    20 OT SD       0.80E-01    7.7     0.00000322     -1102.9944938569 -2.93E-07
    21 OT SD       0.80E-01    7.7     0.00000358     -1102.9944941478 -2.91E-07
    22 OT SD       0.80E-01    7.4     0.00000500     -1102.9944944021 -2.54E-07
    23 OT SD       0.80E-01    7.9     0.00000959     -1102.9944944190 -1.69E-08
    24 OT SD       0.80E-01    7.8     0.00002160     -1102.9944930680  1.35E-06
    25 OT DIIS     0.80E-01    7.1     0.00005073     -1102.9944839574  9.11E-06
    26 OT DIIS     0.80E-01    7.1     0.00000425     -1102.9944878177 -3.86E-06
    27 OT DIIS     0.80E-01    7.7     0.00000378     -1102.9944880813 -2.64E-07
    28 OT SD       0.80E-01    7.6     0.00000272     -1102.9944883864 -3.05E-07
    29 OT SD       0.80E-01    7.8     0.00000266     -1102.9944885845 -1.98E-07
    30 OT SD       0.80E-01    7.7     0.00000293     -1102.9944887599 -1.75E-07

  Leaving inner SCF loop after reaching    30 steps.


  Electronic density on regular grids:       -511.9999999886        0.0000000114
  Core density on regular grids:              512.9999999831       -0.0000000169
  Total charge density on r-space grids:        0.9999999945
  Total charge density g-space grids:           0.9999999945

  Overlap energy of the core charge distribution:               0.00000225496790
  Self energy of the core charge distribution:              -2839.62839375007934
  Core Hamiltonian energy:                                    829.59832590341352
  Hartree energy:                                            1179.04395396232644
  Exchange-correlation energy:                               -271.75940286526372
  Dispersion energy:                                           -0.24897426529401

  Total energy:                                             -1102.99448875992925

  outer SCF iter =    1 RMS gradient =   0.29E-05 energy =      -1102.9944887599

  ----------------------------------- OT ---------------------------------------
  Minimizer      : DIIS                : direct inversion
                                         in the iterative subspace
                                         using   7 DIIS vectors
                                         safer DIIS on
  Preconditioner : FULL_SINGLE_INVERSE : inversion of 
                                         H + eS - 2*(Sc)(c^T*H*c+const)(Sc)^T
  Precond_solver : DEFAULT
  stepsize       :    0.08000000                  energy_gap     :    0.08000000
  eps_taylor     :   0.10000E-15                  max_taylor     :             4
  ----------------------------------- OT ---------------------------------------

  Step     Update method      Time    Convergence         Total energy    Change
  ------------------------------------------------------------------------------
     1 OT DIIS     0.80E-01   26.3     0.00000392     -1102.9944889024 -1.42E-07
     2 OT DIIS     0.80E-01    6.0     0.00000688     -1102.9944889216 -1.92E-08
     3 OT DIIS     0.80E-01    6.2     0.00000247     -1102.9944891735 -2.52E-07
     4 OT DIIS     0.80E-01    6.1     0.00000234     -1102.9944892446 -7.11E-08
     5 OT DIIS     0.80E-01    6.1     0.00000237     -1102.9944896358 -3.91E-07
     6 OT DIIS     0.80E-01    6.7     0.00000228     -1102.9944905399 -9.04E-07
     7 OT SD       0.80E-01    6.6     0.00000227     -1102.9944905799 -4.00E-08
     8 OT SD       0.80E-01    6.6     0.00000230     -1102.9944907349 -1.55E-07
     9 OT SD       0.80E-01    6.7     0.00000241     -1102.9944908907 -1.56E-07
    10 OT SD       0.80E-01    6.5     0.00000289     -1102.9944910405 -1.50E-07
    11 OT SD       0.80E-01    6.8     0.00000478     -1102.9944911411 -1.01E-07
    12 OT SD       0.80E-01    6.5     0.00001047     -1102.9944909296  2.11E-07
    13 OT DIIS     0.80E-01    6.6     0.00002534     -1102.9944887885  2.14E-06
    14 OT SD       0.80E-01    6.0     0.00000239     -1102.9944877056  1.08E-06
    15 OT SD       0.80E-01    5.7     0.00000248     -1102.9944878261 -1.20E-07
    16 OT SD       0.80E-01    5.8     0.00000341     -1102.9944879111 -8.50E-08
    17 OT SD       0.80E-01    5.9     0.00000614     -1102.9944878973  1.38E-08
    18 OT SD       0.80E-01    5.8     0.00001313     -1102.9944873884  5.09E-07
    19 OT DIIS     0.80E-01    6.0     0.00003029     -1102.9944841539  3.23E-06
    20 OT DIIS     0.80E-01    5.9     0.00000184     -1102.9944886321 -4.48E-06
    21 OT DIIS     0.80E-01    6.1     0.00000184     -1102.9944889005 -2.68E-07
    22 OT DIIS     0.80E-01    6.3     0.00000183     -1102.9944890040 -1.04E-07
    23 OT SD       0.80E-01    6.5     0.00000183     -1102.9944890115 -7.48E-09
    24 OT SD       0.80E-01    6.2     0.00000184     -1102.9944891134 -1.02E-07
    25 OT SD       0.80E-01    6.4     0.00000186     -1102.9944892158 -1.02E-07
    26 OT SD       0.80E-01    6.5     0.00000191     -1102.9944893186 -1.03E-07
    27 OT SD       0.80E-01    6.4     0.00000211     -1102.9944894196 -1.01E-07
    28 OT SD       0.80E-01    6.5     0.00000296     -1102.9944895062 -8.66E-08
    29 OT SD       0.80E-01    6.5     0.00000573     -1102.9944895062 -1.64E-11
    30 OT SD       0.80E-01    6.5     0.00001315     -1102.9944889973  5.09E-07

  Leaving inner SCF loop after reaching    30 steps.


[...]
 flops    13 x    32 x     5        1285373373440       0.0%    100.0%      0.0%
 flops     5 x    32 x    13        1285373373440       0.0%    100.0%      0.0%
 flops    13 x    32 x    13        1624938039296       0.0%    100.0%      0.0%
 flops inhomo. stacks               2232010206528     100.0%      0.0%      0.0%
 flops total                        12.913046E+12      17.3%     82.7%      0.0%
 flops max/rank                      1.585654E+12      17.8%     82.2%      0.0%
 matmuls inhomo. stacks                    399363     100.0%      0.0%      0.0%
 matmuls total                         1714276656       0.0%    100.0%      0.0%
 number of processed stacks               5317645       7.3%     92.7%      0.0%
 average stack size                                     1.0     347.7       0.0
 marketing flops                    15.030083E+12
 -------------------------------------------------------------------------------
 # multiplications                          51651
 max memory usage/rank             571.994112E+06
 # max total images/rank                        3
 # max 3D layers                                1
 # MPI messages exchanged                 4958496
 MPI messages size (bytes):
  total size                         1.216026E+12
  min size                           0.000000E+00
  max size                           1.594632E+06
  average size                     245.240891E+03
 MPI breakdown and total messages size (bytes):
             size <=      128              923098                  3835648
       128 < size <=     8192              383972               3069528064
      8192 < size <=    32768              868460              22248091296
     32768 < size <=   131072              812906              60547908736
    131072 < size <=  4194304             1970060            1130282966840
   4194304 < size <= 16777216                   0                        0
  16777216 < size                               0                        0
 -------------------------------------------------------------------------------

 *** WARNING in dbcsr_mm.F:294 :: Using a non-square number of MPI ranks ***
 *** might lead to poor performance. Used ranks: 12 Suggested: 9 25      ***

 -------------------------------------------------------------------------------
 -                                                                             -
 -                      DBCSR MESSAGE PASSING PERFORMANCE                      -
 -                                                                             -
 -------------------------------------------------------------------------------
 ROUTINE             CALLS      AVE VOLUME [Bytes]
 MP_Bcast              100                     12.
 MP_Allreduce       270685                      8.
 MP_Alltoall        184319                  39420.
 MP_ISend          1125520                 105910.
 MP_IRecv          1118284                 102635.
 -------------------------------------------------------------------------------

 -------------------------------------------------------------------------------
 -                                                                             -
 -                                GRID STATISTICS                              -
 -                                                                             -
 -------------------------------------------------------------------------------
 LP    KERNEL    OPERATION                                     COUNT     PERCENT
 0     general   collocate                                    250128       0.05%
 0     ortho     integrate                                  71442478      15.21%
 0     ortho     collocate                                  75200248      16.01%
 1     general   integrate                                    250128       0.05%
 1     ortho     integrate                                  96283046      20.50%
 1     ortho     collocate                                 101350031      21.58%
 2     ortho     integrate                                  46020452       9.80%
 2     ortho     collocate                                  48442591      10.32%
 3     ortho     integrate                                  12344924       2.63%
 3     ortho     collocate                                   9039727       1.92%
 4     ortho     integrate                                   5571633       1.19%
 4     ortho     collocate                                    531030       0.11%
 5     ortho     integrate                                   2422139       0.52%
 6     ortho     integrate                                    452573       0.10%
 7     ortho     integrate                                     26382       0.01%
 -------------------------------------------------------------------------------

 MEMORY| Estimated peak process memory [MiB]                                 543

 -------------------------------------------------------------------------------
 -                                                                             -
 -                         MESSAGE PASSING PERFORMANCE                         -
 -                                                                             -
 -------------------------------------------------------------------------------

 ROUTINE             CALLS      AVE VOLUME [Bytes]
 MP_Group                4
 MP_Bcast            37438                   9120.
 MP_Allreduce       100885                   1917.
 MP_Sync               835
 MP_Alltoall         42571               10999087.
 MP_SendRecv          4752                   4335.
 MP_ISendRecv       142626                 218880.
 MP_Wait            228848
 MP_comm_split         831
 MP_ISend            72608                 503475.
 MP_IRecv            72608                 503475.
 -------------------------------------------------------------------------------


 -------------------------------------------------------------------------------
 -                                                                             -
 -                           R E F E R E N C E S                               -
 -                                                                             -
 -------------------------------------------------------------------------------
 
 CP2K version 8.0 (Development Version), the CP2K developers group (2020).
 CP2K is freely available from https://www.cp2k.org/ .

 Kuehne,Thomas D.; Iannuzzi,Marcella; Del Ben,Mauro;
 Rybkin,Vladimir V.; Seewald,Patrick; Stein,Frederick; Laino,Teodoro;
 Khaliullin,Rustam Z.; Schuett,Ole; Schiffmann,Florian; Golze,Dorothea;
 Wilhelm,Jan; Chulkov,Sergey; Bani-Hashemian,Mohammad Hossein;
 Weber,Valery; Borstnik,Urban; Taillefumier,Mathieu;
 Jakobovits,Alice Shoshana; Lazzaro,Alfio; Pabst,Hans; Mueller,Tiziano;
 Schade,Robert; Guidon,Manuel; Andermatt,Samuel; Holmberg,Nico;
 Schenter,Gregory K.; Hehn,Anna; Bussy,Augustin; Belleflamme,Fabian;
 Tabacchi,Gloria; Gloess,Andreas; Lass,Michael; Bethune,Iain;
 Mundy,Christopher J.; Plessl,Christian; Watkins,Matt;
 VandeVondele,Joost; Krack,Matthias; Hutter,Juerg. 
 The Journal of Chemical Physics, 152 (19), (2020). 
 CP2K: An electronic structure and molecular dynamics software package -
 Quickstep: Efficient and accurate electronic structure calculations.
 https://doi.org/10.1063/5.0007045

 Goerigk, Lars; Hansen, Andreas; Bauer, Christoph; Ehrlich, Stephan;
 Najibi, Asim; Grimme, Stefan. , 19 (48), (2017). 
 A look at the density functional theory zoo with the advanced GMTKN55 database
 for general main group thermochemistry, kinetics and noncovalent interactions.
 https://doi.org/10.1039/C7CP04913G

 Schuett, Ole; Messmer, Peter; Hutter, Juerg; VandeVondele, Joost. 
 Electronic Structure Calculations on Graphics Processing Units, John
 Wiley & Sons, Ltd, 173-190 (2016). 
 GPU-Accelerated Sparse Matrix-Matrix Multiplication for
 Linear Scaling Density Functional Theory.
 https://doi.org/10.1002/9781118670712.ch8

 Borstnik, U; VandeVondele, J; Weber, V; Hutter, J. 
 PARALLEL COMPUTING, 40 (5-6), 47-58 (2014). 
 Sparse matrix multiplication: The distributed block-compressed sparse
 row library.
 https://doi.org/10.1016/j.parco.2014.03.012

 Hutter, J; Iannuzzi, M; Schiffmann, F; VandeVondele, J. 
 WIREs Comput Mol Sci., 4 (1), 15-25 (2014). 
 CP2K: atomistic simulations of condensed matter systems.
 https://doi.org/10.1002/wcms.1159

 Marek, A; Blum, V; Johanni, R; Havu, V; Lang, B; Auckenthaler, T;
 Heinecke, A; Bungartz, H; Lederer, H. 
 Journal of Physics: Condensed Matter, 26 (21), (2014). 
 The ELPA library: scalable parallel eigenvalue solutions for
 electronic structure
 theory and computational science.
 https://doi.org/10.1088/0953-8984/26/21/213201

 Grimme, S; Ehrlich, S; Goerigk, L. 
 JOURNAL OF COMPUTATIONAL CHEMISTRY, 32, 1456 (2011). 
 Effect of the damping function in dispersion corrected density functional theory.
 https://doi.org/10.1002/jcc.21759

 Grimme, S; Antony, J; Ehrlich, S; Krieg, H. 
 JOURNAL OF CHEMICAL PHYSICS, 132 (15), 154104 (2010). 
 A consistent and accurate ab initio parametrization of density
 functional dispersion correction (DFT-D) for the 94 elements H-Pu.
 https://doi.org/10.1063/1.3382344

 Ceriotti, M; Bussi, G; Parrinello, M. 
 PHYSICAL REVIEW LETTERS, 103 (3), 030603 (2009). 
 Nuclear Quantum Effects in Solids Using a Colored-Noise Thermostat.
 https://doi.org/10.1103/PhysRevLett.103.030603

 Ceriotti, M; Bussi, G; Parrinello, M. 
 PHYSICAL REVIEW LETTERS, 102 (2), 020601 (2009). 
 Langevin equation with colored noise for constant-temperature
 molecular dynamics simulations.
 https://doi.org/10.1103/PhysRevLett.102.020601

 Kuhne, TD; Krack, M; Mohamed, FR; Parrinello, M. 
 PHYSICAL REVIEW LETTERS, 98 (6), 066401 (2007). 
 Efficient and accurate Car-Parrinello-like approach to
 Born-Oppenheimer molecular dynamics.
 https://doi.org/10.1103/PhysRevLett.98.066401

 Krack, M. 
 THEORETICAL CHEMISTRY ACCOUNTS, 114 (1-3), 145-152 (2005). 
 Pseudopotentials for H to Kr optimized for gradient-corrected
 exchange-correlation functionals.
 https://doi.org/10.1007/s00214-005-0655-y

 VandeVondele, J; Krack, M; Mohamed, F; Parrinello, M; Chassaing, T;
 Hutter, J. COMPUTER PHYSICS COMMUNICATIONS, 167 (2), 103-128 (2005). 
 QUICKSTEP: Fast and accurate density functional calculations using a
 mixed Gaussian and plane waves approach.
 https://doi.org/10.1016/j.cpc.2004.12.014

 Frigo, M; Johnson, SG. 
 PROCEEDINGS OF THE IEEE, 93 (2), 216-231 (2005). 
 The design and implementation of FFTW3.
 https://doi.org/10.1109/JPROC.2004.840301

 Kolafa, J. 
 JOURNAL OF COMPUTATIONAL CHEMISTRY, 25 (3), 335-342 (2004). 
 Time-reversible always stable predictor-corrector method for molecular dynamics of polarizable molecules.
 https://doi.org/10.1002/jcc.10385

 VandeVondele, J; Hutter, J. 
 JOURNAL OF CHEMICAL PHYSICS, 118 (10), 4365-4369 (2003). 
 An efficient orbital transformation method for electronic structure
 calculations.
 https://doi.org/10.1063/1.1543154

 Hartwigsen, C; Goedecker, S; Hutter, J. 
 PHYSICAL REVIEW B, 58 (7), 3641-3662 (1998). 
 Relativistic separable dual-space Gaussian pseudopotentials from H to Rn.
 https://doi.org/10.1103/PhysRevB.58.3641

 Lippert, G; Hutter, J; Parrinello, M. 
 MOLECULAR PHYSICS, 92 (3), 477-487 (1997). 
 A hybrid Gaussian and plane wave density functional scheme.
 https://doi.org/10.1080/002689797170220

 Perdew, JP; Burke, K; Ernzerhof, M. 
 PHYSICAL REVIEW LETTERS, 77 (18), 3865-3868 (1996). 
 Generalized gradient approximation made simple.
 https://doi.org/10.1103/PhysRevLett.77.3865

 Goedecker, S; Teter, M; Hutter, J. 
 PHYSICAL REVIEW B, 54 (3), 1703-1710 (1996). 
 Separable dual-space Gaussian pseudopotentials.
 https://doi.org/10.1103/PhysRevB.54.1703


 -------------------------------------------------------------------------------
 -                                                                             -
 -                                T I M I N G                                  -
 -                                                                             -
 -------------------------------------------------------------------------------
 SUBROUTINE                       CALLS  ASD         SELF TIME        TOTAL TIME
                                MAXIMUM       AVERAGE  MAXIMUM  AVERAGE  MAXIMUM
 CP2K                                 1  1.0     0.40     0.45 21614.43 21614.52
 qs_mol_dyn_low                       1  2.0     0.02     0.03 21604.33 21604.41
 qs_forces                          108  4.0     0.02     0.07 21578.12 21578.34
 qs_energies                        108  5.0     0.01     0.03 21177.69 21178.16
 velocity_verlet                    107  3.0     0.01     0.03 18611.94 18612.78
 scf_env_do_scf                     108  6.0     0.01     0.02 15840.91 15841.22
 scf_env_do_scf_inner_loop         2053  6.8     0.08     0.24 14281.69 14283.48
 dbcsr_multiply_generic           51651 12.2     2.22     2.35  9620.41  9682.98
 qs_scf_new_mos                    2053  7.8     0.01     0.02  8242.95  8246.34
 qs_scf_loop_do_ot                 2053  8.8     0.02     0.04  8242.94  8246.33
 ot_scf_mini                       2053  9.8     0.04     0.05  7824.10  7827.74
 ot_mini                           2982 10.2     0.02     0.03  6824.31  6826.72
 qs_ot_get_derivative              2523 11.5     0.02     0.04  6007.06  6010.77
 rebuild_ks_matrix                 2161  8.7     0.01     0.01  4585.99  4588.69
 qs_ks_build_kohn_sham_matrix      2161  9.7     0.22     0.24  4585.99  4588.69
 scf_post_calculation_gpw           107  6.0     0.01     0.02  4324.21  4324.34
 qs_ks_update_qs_env               2195  7.8     0.02     0.02  4307.36  4312.97
 make_lumo_gpw                       11  6.9     0.00     0.01  4288.83  4288.90
 ot_eigensolver                      11  7.9     0.02     0.03  4265.20  4265.28
 mp_sum_l                        243796 13.3  3353.28  3397.68  3353.28  3397.68
 mp_waitall_1                   2635488 16.4  3160.33  3370.71  3160.33  3370.71
 qs_ot_get_p                       3154 10.2     0.02     0.03  3340.33  3347.16
 qs_ot_get_derivative_taylor       2063 12.8     0.05     0.06  3306.24  3309.27
 pw_transfer                      41167 12.4     2.57     2.95  3213.80  3271.56
 fft_wrap_pw1pw2                  36845 13.5     0.25     0.31  3207.81  3265.67
 fft3d_ps                         36845 15.5   285.62   343.63  3086.03  3171.09
 multiply_cannon                  51651 13.2     3.92     4.63  2759.55  2946.18
 mp_alltoall_z22v                 36845 17.5  2752.45  2898.81  2752.45  2898.81
 fft_wrap_pw1pw2_200              23879 14.5    29.12    34.30  2661.43  2724.62
 make_m2s                        103302 13.2     1.34     1.38  2322.44  2467.74
 make_images                     103302 14.2     4.82     5.60  2307.86  2453.72
 qs_rho_update_rho                 2161  7.9     0.01     0.02  2120.56  2134.61
 calculate_rho_elec                2161  8.9     3.18     3.69  2120.55  2134.60
 qs_ot_p2m_diag                     890 10.0     0.04     0.07  2068.63  2079.61
 qs_vxc_create                     2161 10.7     0.04     0.06  2011.55  2014.36
 xc_vxc_pw_create                  2161 11.7     8.07     9.74  2011.51  2014.31
 sum_up_and_integrate              2161 10.7     3.73     5.12  1916.18  1918.19
 integrate_v_rspace                2161 11.7     0.06     0.11  1912.45  1915.48
 multiply_cannon_loop             51651 14.2     1.79     1.98  1598.53  1829.99
 cp_dbcsr_syevd                     890 11.0     0.04     0.05  1788.84  1797.80
 make_images_sizes               103302 15.2     0.11     0.11  1667.06  1795.27
 mp_alltoall_i44                 103302 16.2  1666.95  1795.16  1666.95  1795.16
 multiply_cannon_metrocomm3      309906 15.2     0.84     0.91  1446.11  1789.42
 density_rs2pw                     2161  9.9     0.10     0.13  1539.83  1647.80
 rs_pw_transfer                   17504 12.3     0.16     0.21  1476.66  1591.54
 init_scf_loop                      142  6.9     0.00     0.01  1503.43  1504.38
 x_to_yz                          19449 16.9    28.68    32.50  1445.07  1494.53
 dbcsr_complete_redistribute       5489 12.0     1.69     2.07  1457.81  1473.08
 yz_to_x                          17396 15.9    18.72    20.77  1354.77  1448.04
 mp_allgather_i34                 51651 14.2  1147.62  1432.93  1147.62  1432.93
 mp_alltoall_d11v                 41363 13.9  1230.15  1360.53  1230.15  1360.53
 copy_dbcsr_to_fm                  2580 11.0     0.04     0.04  1337.38  1342.32
 mp_sum_b                         88734 13.6  1166.70  1270.43  1166.70  1270.43
 cp_fm_diag_elpa                    912 11.9     0.00     0.00  1204.29  1211.84
 potential_pw2rs                   2161 12.7     0.65     0.73  1138.62  1143.42
 qs_ot_get_orbitals                3012 10.2     0.01     0.01  1097.56  1104.63
 prepare_preconditioner             142  7.9     0.00     0.00  1013.83  1014.05
 make_preconditioner                142  8.9     0.00     0.00  1013.83  1014.05
 make_images_data                103302 15.2     0.95     1.04   622.35   983.53
 xc_rho_set_and_dset_create        2161 12.7     1.99     2.38   912.82   965.22
 qs_ot_get_derivative_diag          460 11.1     0.01     0.01   830.47   832.49
 hybrid_alltoall_any             105882 16.2     1.93     4.33   519.52   819.16
 mp_alltoall_i11v                 31773 14.0   767.71   775.87   767.71   775.87
 init_scf_run                       108  6.0     0.00     0.01   745.80   746.19
 scf_env_initial_rho_setup          108  7.0     0.00     0.01   745.79   746.18
 wfi_extrapolate                    108  8.0     0.01     0.02   725.41   725.62
 ot_diis_step                      2053 11.8     0.07     0.09   664.37   665.87
 dbcsr_new_transposed             20566 13.2     0.21     0.29   640.34   650.77
 dbcsr_redistribute                4242 14.6     0.16     0.22   639.81   650.20
 mp_sum_d                         59001 12.9   579.74   635.63   579.74   635.63
 cp_fm_redistribute_start           912 12.9   476.05   498.21   578.85   586.13
 grid_integrate_task_list          2161 12.7   453.63   566.44   453.63   566.44
 grid_collocate_task_list          2161  9.9   451.66   565.36   451.66   565.36
 apply_preconditioner_dbcsr        2695 12.5     0.01     0.02   550.77   554.64
 apply_single                      2695 13.5     0.01     0.02   550.77   554.63
 mp_waitany                       72608 14.1   384.46   527.54   384.46   527.54
 make_full_single_inverse           142  9.9     0.01     0.02   509.44   510.19
 cp_fm_redistribute_end             912 12.9   353.52   497.81   356.24   503.67
 cp_dbcsr_sm_fm_multiply            584  9.3     0.01     0.01   495.55   499.69
 mp_sum_dv                        57009 14.5   326.66   489.86   326.66   489.86
 make_full_inverse_cholesky         142  9.9     0.00     0.02   481.96   483.43
 arnoldi_normal_ev                 3296 12.1     0.05     0.08   445.75   481.34
 mp_cart_sub                       5162 13.0   461.76   463.70   461.76   463.70
 calculate_dm_sparse               2161  9.8     0.01     0.01   456.38   458.62
 copy_fm_to_dbcsr                  2909 11.0     0.02     0.02   433.46   449.59
 -------------------------------------------------------------------------------

 The number of warnings for this run is : 3
 
 -------------------------------------------------------------------------------
  **** **** ******  **  PROGRAM ENDED AT                 2024-11-28 09:09:08.838
 ***** ** ***  *** **   PROGRAM RAN ON                         cs008.hpc.nyu.edu
 **    ****   ******    PROGRAM RAN BY                                    wx2237
 ***** **    ** ** **   PROGRAM PROCESS ID                               2755388
  **** **  *******  **  PROGRAM STOPPED IN /scratch/work/courses/CHEM-GA-2671-20
                                           24fa/students/wx2237/comp-lab-class-2
                                           024/Week12-IntroAIMD/Runs/Proton
