ITEM: TIMESTEP
0
ITEM: NUMBER OF ATOMS
360
ITEM: BOX BOUNDS pp pp pp
0.0000000000000000e+00 6.6943295008216896e+00
0.0000000000000000e+00 6.6943295008216896e+00
0.0000000000000000e+00 6.6943295008216896e+00
ITEM: ATOMS id type xs ys zs
25 1 0.156781 0.167908 0.114952
27 1 0.0714549 0.041935 0.158762
297 2 0.206292 0.0242053 0.156098
346 2 0.378452 0.159272 0.208271
69 1 0.250209 0.226371 0.226428
80 1 0.334894 0.068904 0.0948747
17 1 0.477646 0.0222247 0.107419
20 1 0.365706 0.238309 0.105415
222 1 0.302855 0.0652 0.248042
290 2 0.0694798 0.385445 0.225437
209 1 0.0219685 0.445893 0.121299
40 1 0.162019 0.335145 0.137433
38 1 0.231449 0.426328 0.0391008
190 1 0.0333241 0.267099 0.0695882
133 1 0.0639232 0.256271 0.236218
171 1 0.499373 0.310144 0.0273661
289 2 0.261791 0.294039 0.0674521
169 1 0.466153 0.437823 0.221479
55 1 0.403626 0.417634 0.0476127
144 1 0.320082 0.359481 0.189542
359 2 0.451473 0.325654 0.143693
242 1 0.134058 0.104775 0.439969
319 2 0.0643666 0.171937 0.354593
183 1 0.154841 0.109778 0.289262
339 2 0.177376 0.220051 0.494869
182 1 0.0529708 0.00840507 0.322892
298 2 0.220199 0.0212889 0.368526
243 1 0.292295 0.141785 0.371528
153 1 0.438682 0.184866 0.408329
139 1 0.450742 0.0846536 0.281367
261 1 0.355694 0.00108717 0.381543
68 1 0.49314 0.0619084 0.478097
140 1 0.304686 0.247712 0.499192
57 1 0.264745 0.01767 0.497281
281 1 0.162898 0.251032 0.364476
72 1 0.0480921 0.250139 0.460909
211 1 0.191087 0.381108 0.449648
252 1 0.0618227 0.368144 0.354736
198 1 0.212885 0.386662 0.289868
345 2 0.160158 0.468352 0.370479
124 1 0.0620891 0.499653 0.444391
79 1 0.315878 0.297527 0.34304
332 2 0.430588 0.372247 0.339479
341 2 0.346078 0.466217 0.257258
273 1 0.340795 0.45338 0.38804
6 1 0.429918 0.347645 0.464444
229 1 0.43374 0.25871 0.265662
61 1 0.120914 0.15906 0.596096
321 2 0.218301 0.22276 0.700496
201 1 0.0136182 0.0726083 0.695262
110 1 0.181881 0.103276 0.741858
231 1 0.0654799 0.215778 0.748708
22 1 0.265364 0.134566 0.605396
167 1 0.45374 0.226564 0.573468
119 1 0.39948 0.0596206 0.602382
259 1 0.336658 0.155313 0.742694
108 1 0.47571 0.101082 0.738247
313 2 0.359311 0.132148 0.504684
197 1 0.036571 0.376675 0.567049
208 1 0.143749 0.34469 0.729828
327 2 0.0522532 0.269456 0.626342
150 1 0.184054 0.298019 0.591723
66 1 0.163575 0.449067 0.601595
347 2 0.0278794 0.417993 0.689661
186 1 0.334036 0.283543 0.653934
286 1 0.27977 0.436319 0.713064
184 1 0.307448 0.414374 0.546175
283 1 0.495091 0.261418 0.740787
35 1 0.442715 0.375321 0.615705
352 2 0.383262 0.475586 0.656015
137 1 0.0484652 0.193301 0.913749
353 2 0.170462 0.121182 0.890874
154 1 0.0514857 0.0634027 0.842246
212 1 0.213749 0.235518 0.832789
32 1 0.0938765 0.0764061 0.998657
262 1 0.265679 0.154824 0.979949
100 1 0.42912 0.193095 0.882825
173 1 0.413095 0.0372375 0.948671
102 1 0.275117 0.0589673 0.852685
301 2 0.381486 0.177661 0.998696
179 1 0.161252 0.283651 0.987238
126 1 0.0358205 0.413414 0.826089
156 1 0.085306 0.421302 0.975806
316 2 0.0863749 0.302252 0.866343
160 1 0.213041 0.385818 0.859369
333 2 0.187799 0.484351 0.933755
328 2 0.431547 0.338116 0.88857
162 1 0.347481 0.294323 0.805923
264 1 0.342502 0.295218 0.966645
49 1 0.350756 0.439167 0.898155
2 1 0.462264 0.408255 0.773186
62 1 0.127922 0.713019 0.0703908
90 1 0.157836 0.559596 0.0301475
326 2 0.22526 0.630255 0.106832
210 1 0.0409454 0.590383 0.126893
145 1 0.17864 0.509904 0.182061
304 2 0.0256719 0.529364 0.0192016
127 1 0.144553 0.649694 0.227101
199 1 0.461602 0.721432 0.0509038
12 1 0.293742 0.715961 0.0478689
77 1 0.453177 0.56397 0.0358939
357 2 0.385096 0.641917 0.125489
230 1 0.298275 0.655311 0.215637
330 2 0.471386 0.551712 0.16965
172 1 0.340811 0.518617 0.150692
83 1 0.487271 0.677742 0.202638
337 2 0.0545978 0.912978 0.202882
78 1 0.1117 0.895395 0.080726
97 1 0.0675051 0.786271 0.186422
14 1 0.226276 0.795705 0.162031
152 1 0.185059 0.935814 0.249168
23 1 0.306182 0.918435 0.127389
103 1 0.429314 0.934883 0.222022
255 1 0.379421 0.781112 0.173522
48 1 0.451418 0.882621 0.0639677
250 1 0.108963 0.644022 0.384336
128 1 0.20181 0.554311 0.478749
299 2 0.046884 0.737248 0.328846
181 1 0.218714 0.717557 0.475553
217 1 0.241062 0.557266 0.323647
13 1 0.0659636 0.506277 0.288456
296 2 0.253346 0.683627 0.3574
191 1 0.336134 0.619279 0.442485
89 1 0.412334 0.567262 0.300369
141 1 0.389383 0.719647 0.32216
56 1 0.0396917 0.85608 0.319305
50 1 0.214113 0.894367 0.415224
202 1 0.170922 0.775864 0.304695
112 1 0.0922748 0.956857 0.471102
193 1 0.0501766 0.787645 0.463772
195 1 0.34582 0.811082 0.443396
123 1 0.306232 0.853566 0.295633
16 1 0.496673 0.812151 0.268737
314 2 0.417129 0.873596 0.355695
76 1 0.150926 0.610615 0.611821
95 1 0.0216803 0.530226 0.594876
292 2 0.0967129 0.683403 0.521045
26 1 0.107648 0.516558 0.742848
307 2 0.22789 0.568673 0.710743
271 1 0.0145517 0.680807 0.624756
131 1 0.448002 0.647497 0.543227
235 1 0.305611 0.724179 0.598966
308 2 0.408184 0.620062 0.683466
161 1 0.313811 0.564645 0.597797
138 1 0.444453 0.738834 0.66901
59 1 0.427052 0.505107 0.510387
204 1 0.301954 0.671339 0.740889
106 1 0.103138 0.931858 0.718623
312 2 0.150083 0.837237 0.528022
200 1 0.152005 0.761685 0.63919
94 1 0.0427548 0.858811 0.597123
170 1 0.0212172 0.786798 0.737006
3 1 0.144306 0.999199 0.597419
58 1 0.26308 0.872142 0.565898
96 1 0.401136 0.884821 0.658492
132 1 0.273417 0.822694 0.733415
355 2 0.425078 0.788114 0.541673
104 1 0.282659 0.993572 0.682496
130 1 0.435272 0.922342 0.523847
158 1 0.083345 0.551752 0.888519
226 1 0.186482 0.67402 0.925848
295 2 0.0651802 0.701878 0.867153
287 1 0.00352361 0.645243 0.978574
115 1 0.146755 0.656177 0.766901
31 1 0.49567 0.663765 0.788773
4 1 0.397812 0.54404 0.786831
175 1 0.253809 0.537486 0.835682
311 2 0.43667 0.540446 0.909688
101 1 0.362972 0.661265 0.897941
146 1 0.309821 0.558018 0.994454
47 1 0.200197 0.826673 0.978983
113 1 0.0443452 0.795099 0.956135
244 1 0.145878 0.812818 0.821899
165 1 0.137521 0.93988 0.883185
216 1 0.00312526 0.957754 0.980349
288 1 0.235591 0.989037 0.999695
149 1 0.366034 0.813156 0.957193
356 2 0.474826 0.767506 0.916488
249 1 0.286403 0.908688 0.883435
136 1 0.38863 0.981627 0.792017
224 1 0.397546 0.797405 0.812906
351 2 0.270101 0.775667 0.851143
268 1 0.673988 0.0397743 0.116392
223 1 0.50344 0.179922 0.142184
151 1 0.664715 0.17847 0.183348
280 1 0.65599 0.218144 0.0317649
237 1 0.595021 0.0361923 0.23985
5 1 0.950058 0.0973 0.0810114
67 1 0.816784 0.0946544 0.173535
251 1 0.923168 0.232682 0.170879
74 1 0.780279 0.117129 0.0227481
135 1 0.702703 0.398442 0.104437
41 1 0.559023 0.459226 0.0775879
206 1 0.580811 0.307611 0.161624
240 1 0.650341 0.433387 0.247854
117 1 0.946036 0.406739 0.249242
214 1 0.802483 0.492114 0.186171
178 1 0.79114 0.250842 0.109133
274 1 0.814672 0.337725 0.2217
225 1 0.881706 0.379575 0.0984574
34 1 0.590954 0.144987 0.35422
317 2 0.705667 0.090222 0.278454
8 1 0.741178 0.186055 0.441228
248 1 0.675571 0.0191841 0.38917
247 1 0.569859 0.218399 0.485749
354 2 0.627521 0.0990276 0.483815
348 2 0.567498 0.219747 0.254938
279 1 0.802388 0.190191 0.286327
276 1 0.835156 0.0528392 0.354657
91 1 0.96835 0.115822 0.412183
241 1 0.881611 0.238206 0.451102
148 1 0.956302 0.0979151 0.251013
267 1 0.517059 0.459084 0.371065
196 1 0.663912 0.434439 0.407255
75 1 0.686278 0.286353 0.293419
82 1 0.546645 0.306154 0.360838
334 2 0.663225 0.303663 0.423706
52 1 0.77652 0.353099 0.477381
120 1 0.930409 0.282913 0.317175
105 1 0.928062 0.395304 0.431674
350 2 0.805977 0.292726 0.351837
203 1 0.795142 0.421777 0.338565
227 1 0.571384 0.123115 0.60457
24 1 0.721863 0.121834 0.578503
88 1 0.645587 0.233244 0.715362
60 1 0.626182 0.0663197 0.736684
344 2 0.74014 0.13731 0.724155
285 1 0.856151 0.106346 0.66685
44 1 0.86255 0.094298 0.512027
164 1 0.96764 0.191942 0.580477
324 2 0.940363 0.198832 0.708511
159 1 0.825782 0.238287 0.603425
39 1 0.978934 0.017306 0.561936
291 2 0.563203 0.276942 0.630422
233 1 0.590827 0.396332 0.686976
134 1 0.673849 0.295802 0.581054
1 1 0.708291 0.459931 0.564344
122 1 0.568085 0.377207 0.519396
349 2 0.913608 0.310042 0.553453
125 1 0.779265 0.373617 0.686702
265 1 0.943294 0.32615 0.668642
180 1 0.880447 0.440565 0.581613
99 1 0.938395 0.490316 0.740617
111 1 0.661823 0.157562 0.886369
300 2 0.552664 0.168019 0.818017
254 1 0.566363 0.0360016 0.879016
360 2 0.638152 0.0798079 0.997645
81 1 0.531764 0.147491 0.97974
275 1 0.816088 0.232423 0.756834
30 1 0.915243 0.128272 0.825008
323 2 0.790154 0.178307 0.883441
188 1 0.760709 0.0577109 0.818043
166 1 0.881242 0.0177734 0.926752
294 2 0.925459 0.0152385 0.776463
87 1 0.91167 0.216586 0.990968
303 2 0.984976 0.0913436 0.942459
29 1 0.504753 0.43916 0.937072
84 1 0.724062 0.477452 0.838736
65 1 0.560495 0.284587 0.875381
63 1 0.706337 0.310246 0.825876
302 2 0.586235 0.40133 0.82322
194 1 0.65723 0.376826 0.969639
270 1 0.801576 0.458174 0.980947
116 1 0.954446 0.280334 0.819341
129 1 0.795849 0.30234 0.955207
187 1 0.94561 0.362758 0.956575
70 1 0.847972 0.403838 0.826459
107 1 0.586109 0.616693 0.0858711
9 1 0.743589 0.573317 0.0599082
329 2 0.652953 0.518338 0.140722
282 1 0.694998 0.62024 0.225243
215 1 0.626019 0.749579 0.145827
336 2 0.94047 0.532848 0.204872
92 1 0.854236 0.637927 0.182674
189 1 0.89312 0.544651 0.05952
263 1 0.946339 0.7347 0.0966768
33 1 0.699623 0.86881 0.0727257
278 1 0.575742 0.902003 0.163635
343 2 0.503543 0.780145 0.141692
245 1 0.573586 0.803491 0.0106346
121 1 0.576215 0.955097 0.0105272
114 1 0.957865 0.896457 0.110393
157 1 0.760381 0.955666 0.222669
338 2 0.830512 0.86295 0.156222
19 1 0.795801 0.757055 0.0833562
53 1 0.827148 0.970901 0.071875
28 1 0.907972 0.786755 0.234594
284 1 0.754579 0.763849 0.232328
246 1 0.67459 0.584562 0.377308
258 1 0.608487 0.721895 0.32252
168 1 0.730737 0.735452 0.424392
109 1 0.557322 0.554551 0.265015
10 1 0.502151 0.61812 0.399531
42 1 0.91648 0.540003 0.346037
342 2 0.78421 0.562851 0.301525
256 1 0.84095 0.672176 0.334126
358 2 0.830174 0.636927 0.453128
85 1 0.96893 0.639672 0.466848
15 1 0.802263 0.509018 0.45636
213 1 0.996099 0.645724 0.255264
320 2 0.933181 0.522591 0.483408
232 1 0.514981 0.956626 0.353176
272 1 0.648823 0.874808 0.298187
163 1 0.650314 0.861214 0.456093
325 2 0.555497 0.955306 0.476326
11 1 0.505119 0.809592 0.43012
64 1 0.942598 0.947886 0.42858
238 1 0.915027 0.941269 0.262654
93 1 0.801116 0.876758 0.356479
293 2 0.787145 0.839319 0.480573
218 1 0.897178 0.779184 0.421874
228 1 0.589002 0.65814 0.661242
177 1 0.713044 0.620205 0.528483
340 2 0.683841 0.735117 0.598708
239 1 0.671721 0.523861 0.690056
277 1 0.506018 0.534862 0.658218
51 1 0.577369 0.537958 0.518576
253 1 0.594372 0.70592 0.507851
310 2 0.814088 0.520505 0.680913
205 1 0.755039 0.656554 0.685783
71 1 0.867497 0.588381 0.581317
21 1 0.81246 0.733427 0.560106
318 2 0.89038 0.657157 0.707175
37 1 0.660814 0.782173 0.719433
207 1 0.73968 0.981634 0.680589
118 1 0.565556 0.835632 0.593587
305 2 0.626573 0.910336 0.673012
143 1 0.729947 0.852489 0.594798
45 1 0.519498 0.981344 0.646722
260 1 0.639876 0.983668 0.561116
46 1 0.532654 0.838977 0.748139
331 2 0.841354 0.988801 0.611675
86 1 0.913457 0.918625 0.695977
315 2 0.944517 0.751422 0.542616
306 2 0.773488 0.86436 0.726981
192 1 0.873511 0.775511 0.692658
54 1 0.896329 0.863653 0.553119
43 1 0.782522 0.966283 0.501584
219 1 0.677269 0.635196 0.832002
36 1 0.563106 0.524227 0.820384
174 1 0.530149 0.640515 0.933943
7 1 0.685051 0.686344 0.9772
185 1 0.637913 0.534112 0.958674
322 2 0.752188 0.586553 0.921328
155 1 0.848961 0.660422 0.958079
257 1 0.939379 0.523649 0.917554
236 1 0.836273 0.579075 0.805309
98 1 0.930553 0.749427 0.861292
73 1 0.783741 0.74436 0.81871
220 1 0.989315 0.626446 0.786186
18 1 0.728033 0.982523 0.95342
176 1 0.742571 0.819827 0.937468
147 1 0.664795 0.923201 0.804217
335 2 0.626666 0.88011 0.921711
234 1 0.598498 0.770672 0.86904
309 2 0.527473 0.966187 0.776452
221 1 0.501997 0.898748 0.889077
142 1 0.833247 0.915987 0.82628
266 1 0.987061 0.902811 0.835158
269 1 0.900489 0.853487 0.972781
ITEM: TIMESTEP
1000000
ITEM: NUMBER OF ATOMS
360
ITEM: BOX BOUNDS pp pp pp
0.0000000000000000e+00 6.6943295008216896e+00
0.0000000000000000e+00 6.6943295008216896e+00
0.0000000000000000e+00 6.6943295008216896e+00
ITEM: ATOMS id type xs ys zs
90 1 0.170088 0.11072 0.0812543
298 2 0.0553181 0.0476128 0.121409
23 1 0.140161 0.0543475 0.217617
222 1 0.0562762 0.192233 0.175436
240 1 0.226759 0.196899 0.205919
353 2 0.49383 0.28654 0.0694557
20 1 0.326538 0.157005 0.0919018
144 1 0.435439 0.0591508 0.138783
169 1 0.430405 0.228455 0.168227
4 1 0.289746 0.0144234 0.141682
196 1 0.278054 0.441954 0.164272
53 1 0.0208933 0.293058 0.0676364
156 1 0.011323 0.430972 0.143163
73 1 0.173755 0.423913 0.0486517
351 2 0.379814 0.454063 0.2436
332 2 0.490733 0.323514 0.247494
175 1 0.294962 0.309628 0.0976408
83 1 0.419763 0.376496 0.154004
146 1 0.315518 0.483744 0.0212423
40 1 0.13704 0.325241 0.181558
19 1 0.134755 0.492033 0.196027
216 1 0.0307589 0.138499 0.0277603
302 2 0.0313073 0.419141 0.0179479
27 1 0.164874 0.248619 0.00903492
242 1 0.100042 0.165493 0.334644
313 2 0.139283 0.179742 0.476591
110 1 0.16465 0.0618248 0.434501
103 1 0.26653 0.0230204 0.330643
133 1 0.258178 0.18589 0.36729
163 1 0.407996 0.0584082 0.409387
337 2 0.0213986 0.0840106 0.266312
291 2 0.298523 0.075732 0.44926
273 1 0.448195 0.239125 0.340972
335 2 0.0901283 0.312643 0.308441
350 2 0.0816731 0.365033 0.488644
262 1 0.163224 0.291685 0.413692
9 1 0.0543765 0.414427 0.377295
211 1 0.183664 0.448054 0.482339
183 1 -0.0093452 0.0994831 0.446747
21 1 0.434649 0.395786 0.346545
217 1 0.210972 0.408487 0.309706
120 1 0.324575 0.31781 0.431579
186 1 0.012711 0.26617 0.425669
250 1 0.322643 0.317292 0.265586
261 1 0.368208 0.122432 0.259761
223 1 0.462581 0.477901 0.468961
239 1 0.408273 0.195032 0.487725
109 1 0.314279 0.486988 0.411339
61 1 0.10089 0.114235 0.574377
244 1 0.181456 0.201453 0.676732
106 1 0.143414 0.0418485 0.702486
3 1 0.0326742 0.166701 0.714996
201 1 0.264838 0.178319 0.524434
65 1 0.341135 0.226457 0.672938
45 1 0.298816 0.0844446 0.696261
311 2 0.421982 0.124751 0.669648
57 1 0.370088 0.0586261 0.551701
49 1 0.434116 0.0109157 0.734304
167 1 0.207029 0.435149 0.679819
259 1 0.103975 0.273884 0.559984
208 1 0.0672337 0.42626 0.616994
72 1 0.0804486 0.313364 0.733761
44 1 0.246575 0.329999 0.570906
151 1 0.403609 0.333945 0.570748
184 1 0.310928 0.473542 0.563179
245 1 0.218409 0.00663111 0.572032
295 2 0.428306 0.449595 0.626539
283 1 0.345405 0.385806 0.703343
6 1 0.48587 0.449812 0.736546
24 1 0.486536 0.288539 0.708899
336 2 0.0570706 0.00165619 0.627281
38 1 0.134525 0.214566 0.847422
333 2 0.173491 0.133632 0.933639
102 1 0.217478 0.0876101 0.825023
319 2 0.0888908 0.0961129 0.811815
77 1 0.454031 0.219431 0.954372
166 1 0.342704 0.00277525 0.857444
297 2 0.266354 0.196126 0.78115
36 1 0.392521 0.140647 0.813604
100 1 0.299489 0.195807 0.933378
356 2 0.471639 0.0530666 0.859523
138 1 0.258885 0.0492418 0.980844
173 1 0.420408 0.0696451 0.986245
162 1 0.0982847 0.472003 0.798616
55 1 0.414079 0.361529 0.993455
301 2 0.046468 0.257655 0.937795
12 1 0.277135 0.357047 0.931222
116 1 0.104859 0.369473 0.912827
29 1 0.221293 0.324686 0.780944
231 1 0.238805 0.495343 0.833023
108 1 0.382272 0.452156 0.86749
126 1 0.374877 0.297784 0.829546
347 2 0.124533 0.486228 0.933563
251 1 0.0986911 0.0308683 0.92864
344 2 0.492583 0.239385 0.822813
25 1 0.0661398 0.633581 0.187493
210 1 0.252704 0.599973 0.11817
92 1 0.0820994 0.550065 0.0471356
14 1 0.212601 0.739359 0.178589
226 1 0.110308 0.70139 0.0205245
316 2 0.38622 0.808421 0.0541015
264 1 0.31842 0.849627 0.160569
172 1 0.480653 0.686697 0.0272165
255 1 0.415203 0.541074 0.142532
10 1 0.371885 0.710728 0.129504
127 1 0.280896 0.74057 0.023232
296 2 0.364585 0.615858 0.0417328
199 1 0.439536 0.923114 0.086961
182 1 0.170304 0.897683 0.203619
191 1 0.0604571 0.84291 0.088368
80 1 0.156777 0.962328 0.0667696
299 2 0.198321 0.838332 0.0817141
139 1 0.472195 0.821389 0.206688
232 1 0.387389 0.955729 0.248381
152 1 0.0646198 0.780922 0.236518
327 2 0.177841 0.619269 0.239745
221 1 0.294248 0.893692 0.00667397
13 1 0.159926 0.55081 0.353964
195 1 0.0320568 0.659498 0.339112
141 1 0.185863 0.705387 0.330998
202 1 0.281917 0.761411 0.441568
187 1 0.0395201 0.548803 0.45893
123 1 0.271907 0.857228 0.303431
134 1 0.498307 0.947411 0.476849
62 1 0.282523 0.55206 0.262319
339 2 0.281125 0.613345 0.377105
203 1 0.345214 0.724667 0.284626
267 1 0.405087 0.653245 0.427815
121 1 0.432372 0.561524 0.30481
354 2 0.153345 0.8258 0.317098
56 1 0.0594048 0.802951 0.396366
32 1 0.0934907 0.956477 0.327296
50 1 0.186155 0.881935 0.45355
66 1 0.12837 0.671806 0.480762
119 1 0.422716 0.851546 0.355417
11 1 0.331604 0.939951 0.443643
161 1 0.101594 0.72686 0.632107
197 1 0.156811 0.580397 0.603002
355 2 0.035694 0.616743 0.576291
265 1 0.0524368 0.596008 0.708005
345 2 0.287059 0.589787 0.6326
132 1 0.459673 0.917427 0.625568
79 1 0.411061 0.600981 0.594616
170 1 0.259894 0.711794 0.64168
307 2 0.36282 0.705812 0.551916
128 1 0.272665 0.62196 0.509511
58 1 0.288626 0.850279 0.582333
78 1 0.0153318 0.84169 0.738725
118 1 0.452027 0.762066 0.644871
292 2 0.182834 0.785109 0.547396
281 1 0.126883 0.888134 0.638249
200 1 0.0176833 0.811609 0.538072
113 1 0.361278 0.534809 0.726412
249 1 0.260651 0.932446 0.729509
309 2 0.337665 0.966813 0.626418
352 2 0.32195 0.814173 0.69994
142 1 0.417999 0.807496 0.50351
39 1 0.0564781 0.961332 0.508424
26 1 0.208423 0.584338 0.964747
212 1 0.100655 0.606759 0.859101
95 1 0.227723 0.709735 0.87455
47 1 0.269638 0.850227 0.861829
224 1 0.490214 0.651257 0.87887
286 1 0.344606 0.606164 0.902618
143 1 0.36951 0.704529 0.772171
359 2 0.44957 0.55398 0.81887
234 1 0.445803 0.92067 0.934397
289 2 0.212533 0.953673 0.912763
287 1 0.086466 0.762233 0.867194
137 1 0.117437 0.918545 0.816515
263 1 0.13412 0.862151 0.956776
147 1 0.413599 0.858116 0.786851
284 1 0.398156 0.770498 0.920868
220 1 0.471195 0.533425 0.971045
322 2 0.0103495 0.648795 0.946893
340 2 0.492848 0.73854 0.782326
235 1 0.188378 0.789504 0.748082
315 2 0.0878791 0.69772 0.759844
70 1 0.205967 0.614352 0.739582
280 1 0.553864 0.162448 0.0806619
229 1 0.678287 0.0730491 0.130297
209 1 0.722257 0.225159 0.0811838
243 1 0.689737 0.189637 0.231316
81 1 0.567464 0.0118911 0.0400979
171 1 0.744525 0.348363 0.231497
117 1 0.795384 0.467194 0.147406
293 2 0.8055 0.132 0.13629
190 1 0.893787 0.208818 0.0650254
145 1 0.933088 0.0914258 0.17063
270 1 0.842333 0.237727 0.203589
290 2 0.909284 0.43082 0.231094
230 1 0.981577 0.324751 0.240962
125 1 0.686894 0.387749 0.0620613
41 1 0.583955 0.289464 0.169123
326 2 0.638001 0.415525 0.175436
236 1 0.542879 0.428265 0.0838385
279 1 0.525041 0.452634 0.238557
321 2 0.913131 0.0852659 0.00959552
257 1 0.896346 0.38373 0.0580759
341 2 0.789234 0.340981 0.117434
360 2 0.659294 0.118978 0.00665358
28 1 0.831012 0.00558003 0.109582
247 1 0.534221 0.122303 0.242619
248 1 0.661637 0.0571136 0.304
237 1 0.597348 0.198334 0.385013
153 1 0.561019 0.0845435 0.474992
189 1 0.899733 0.339402 0.371943
43 1 0.716017 0.0768812 0.454908
274 1 0.777676 0.200098 0.361825
305 2 0.847595 0.093442 0.38476
69 1 0.937272 0.173303 0.312147
285 1 0.879103 0.201692 0.48742
282 1 0.824252 0.471235 0.318872
68 1 0.874157 0.0131348 0.487043
320 2 0.935782 0.478347 0.39759
317 2 0.54637 0.453103 0.363939
89 1 0.536751 0.332341 0.457002
135 1 0.608805 0.329595 0.313765
75 1 0.733177 0.366663 0.389917
22 1 0.647307 0.467613 0.457175
67 1 0.80311 0.0817751 0.269311
34 1 0.713185 0.236085 0.496314
82 1 0.671484 0.476347 0.292171
91 1 0.936633 0.0127612 0.320752
260 1 0.677509 0.111795 0.593028
111 1 0.669618 0.433134 0.747698
252 1 0.800092 0.356332 0.687318
76 1 0.945204 0.439193 0.695435
104 1 0.523823 0.0685844 0.620369
154 1 0.795375 0.0404956 0.659312
207 1 0.805225 0.212329 0.629569
325 2 0.809159 0.104963 0.546421
227 1 0.941431 0.0944799 0.617233
198 1 0.955158 0.289777 0.614455
5 1 0.801549 0.352598 0.524325
160 1 0.554332 0.217555 0.570519
241 1 0.664677 0.275792 0.650943
8 1 0.559273 0.372266 0.610437
277 1 0.700189 0.444743 0.597541
306 2 0.658329 0.347687 0.524788
324 2 0.846538 0.444281 0.594836
188 1 0.713625 0.147087 0.742557
303 2 0.992929 0.197577 0.548075
52 1 0.947777 0.41119 0.506504
165 1 1.00816 0.00851997 0.754997
74 1 0.560098 0.122777 0.922316
88 1 0.699651 0.187843 0.904596
343 2 0.651508 0.07076 0.844085
96 1 0.535136 0.129668 0.757969
159 1 0.853251 0.418027 0.825134
84 1 0.794054 0.475936 0.974119
225 1 0.793324 0.0677012 0.847927
179 1 0.957641 0.0602671 0.886309
87 1 0.887598 0.197786 0.917875
18 1 0.690266 0.00622597 0.956328
122 1 0.616302 0.280582 0.806811
42 1 0.595113 0.281338 0.985367
330 2 0.568562 0.418383 0.959296
204 1 0.671606 0.397173 0.902277
2 1 0.512606 0.357994 0.86856
185 1 0.792646 0.304262 0.972101
129 1 0.947859 0.335821 0.921973
30 1 0.889473 0.140623 0.750821
194 1 0.774336 0.282714 0.81634
60 1 0.930277 0.299958 0.771659
71 1 0.98222 0.499435 0.93677
310 2 0.992747 0.4137 0.81275
331 2 0.988412 0.180065 0.831764
254 1 0.795767 0.113288 1.00382
215 1 0.669297 0.547299 0.152144
357 2 0.724064 0.681053 0.163212
149 1 0.631108 0.662651 0.0673856
314 2 0.546092 0.56035 0.0694092
214 1 0.782384 0.604579 0.0669733
114 1 0.967344 0.709142 0.110604
205 1 0.93078 0.561788 0.118289
334 2 0.8698 0.706014 0.0393632
97 1 0.986257 0.978117 0.0303471
272 1 0.835936 0.730427 0.189958
312 2 0.927521 0.654956 0.22837
358 2 0.777078 0.842936 0.16195
16 1 0.546713 0.823426 0.0461036
136 1 0.699706 0.915431 0.0778522
278 1 0.637579 0.795501 0.169544
258 1 0.756664 0.765233 0.0617294
268 1 0.567068 0.965625 0.183185
17 1 0.731713 0.955275 0.221454
238 1 0.894289 0.863527 0.0960853
48 1 0.525195 0.649735 0.181634
349 2 0.947787 0.806012 0.1945
124 1 0.801135 0.593082 0.231187
276 1 1.00067 0.952463 0.185512
35 1 0.569288 0.588633 0.393917
51 1 0.725913 0.599683 0.381238
59 1 0.644211 0.727212 0.423101
256 1 0.650977 0.685648 0.271558
288 1 0.524883 0.9804 0.333521
130 1 0.510119 0.723415 0.333792
85 1 0.958028 0.690786 0.478431
346 2 0.793569 0.694324 0.313628
1 1 0.895174 0.598857 0.374557
86 1 0.809332 0.680499 0.485702
213 1 0.903086 0.74226 0.345721
37 1 0.769796 0.816991 0.436769
93 1 0.649785 0.918468 0.434233
246 1 0.593499 0.854264 0.303109
168 1 0.741896 0.810181 0.287128
329 2 0.542539 0.817142 0.427943
54 1 0.918152 0.878917 0.413034
157 1 0.78685 0.955894 0.36678
342 2 0.999328 0.874051 0.303844
63 1 0.976695 0.520966 0.26802
180 1 0.810967 0.507413 0.478402
148 1 0.873505 0.889587 0.262802
323 2 0.579107 0.564911 0.266953
140 1 0.603799 0.709513 0.647922
150 1 0.666438 0.578826 0.711389
266 1 0.676296 0.61638 0.529412
348 2 0.695422 0.748816 0.535236
233 1 0.557634 0.524835 0.604838
158 1 0.516626 0.679885 0.526859
294 2 0.704916 0.721557 0.724784
105 1 0.913881 0.557545 0.582836
15 1 0.786683 0.692609 0.636537
181 1 0.938288 0.700749 0.629432
177 1 0.810474 0.519647 0.702583
300 2 0.779779 0.576375 0.58718
253 1 0.578013 0.841001 0.721665
228 1 0.599369 0.833182 0.547931
64 1 0.947641 0.935203 0.624498
206 1 0.6428 0.963918 0.608927
98 1 0.720404 0.831657 0.651923
328 2 0.564779 0.98273 0.707073
218 1 0.865241 0.823132 0.563391
271 1 0.849988 0.807695 0.735907
308 2 0.809953 0.91212 0.660461
94 1 0.764464 0.929358 0.532103
131 1 0.498368 0.611606 0.721282
46 1 0.618559 0.687723 0.810012
275 1 0.56746 0.515408 0.848738
7 1 0.715184 0.671336 0.925442
101 1 0.648897 0.535746 0.979003
33 1 0.848365 0.947823 0.968499
219 1 0.737068 0.534094 0.847463
155 1 0.982196 0.897222 0.880511
99 1 0.927791 0.562041 0.801351
31 1 0.878414 0.6208 0.940067
176 1 0.802471 0.669088 0.79635
164 1 0.952969 0.704803 0.791475
304 2 0.589396 0.66056 0.952478
178 1 0.567152 0.963974 0.837109
193 1 0.710074 0.810579 0.80335
338 2 0.576622 0.916899 0.951742
269 1 0.541506 0.788943 0.89043
107 1 0.674209 0.838003 0.948768
112 1 0.866072 0.950643 0.778769
174 1 0.825366 0.791893 0.901928
318 2 0.767745 0.938893 0.868313
115 1 0.966565 0.778627 0.981593
192 1 0.697069 0.954508 0.752136
ITEM: TIMESTEP
2000000
ITEM: NUMBER OF ATOMS
360
ITEM: BOX BOUNDS pp pp pp
0.0000000000000000e+00 6.6943295008216896e+00
0.0000000000000000e+00 6.6943295008216896e+00
0.0000000000000000e+00 6.6943295008216896e+00
ITEM: ATOMS id type xs ys zs
222 1 0.107781 0.0934599 0.148628
327 2 0.151424 0.224722 0.0922696
262 1 0.106141 0.235012 0.210749
83 1 0.393281 0.370414 0.170183
183 1 0.234928 0.13065 0.0921626
189 1 0.00556851 0.393376 0.189201
4 1 0.432288 0.133828 0.0259962
268 1 0.374951 0.0536514 0.148564
220 1 0.394684 0.20482 0.180612
289 2 0.494505 0.121065 0.147929
42 1 0.444792 0.366796 0.0130012
53 1 0.0319508 0.284664 0.0788865
231 1 0.292533 0.410231 0.0544615
242 1 0.229158 0.124692 0.248301
156 1 0.14773 0.391912 0.122143
240 1 0.253945 0.275267 0.187465
41 1 0.331836 0.269211 0.0576437
335 2 0.25714 0.442216 0.174069
297 2 0.0762833 0.48971 0.221204
126 1 0.33839 0.000878108 0.00604411
345 2 0.154458 0.433057 -0.00123973
191 1 0.106175 0.0243782 0.285265
313 2 0.125503 0.16163 0.320815
244 1 0.0583989 0.118586 0.420175
110 1 0.215158 0.10167 0.402352
111 1 0.39384 0.429504 0.446631
144 1 0.323147 0.20253 0.346315
309 2 0.360137 0.0708516 0.439286
141 1 0.358571 0.0463136 0.310312
245 1 0.470624 0.115544 0.401691
330 2 0.446987 0.159848 0.287845
11 1 0.425058 0.267525 0.470671
355 2 0.0675671 0.325786 0.290264
120 1 0.189057 0.267576 0.349709
227 1 0.0470756 0.297873 0.416603
351 2 0.15357 0.377823 0.401677
40 1 0.170514 0.40417 0.27676
217 1 0.021441 0.432739 0.350992
196 1 0.112412 0.485316 0.479982
250 1 0.308021 0.355951 0.31468
261 1 0.448231 0.295229 0.311869
151 1 0.276075 0.32902 0.463675
279 1 0.252829 0.47744 0.393352
247 1 0.463672 0.463614 0.300946
30 1 0.192051 0.11273 0.609292
112 1 0.0367499 0.0716914 0.586736
29 1 0.0941326 0.220827 0.670785
292 2 0.214002 0.0437728 0.715858
260 1 0.368965 0.279239 0.711744
49 1 0.301616 0.439473 0.572744
79 1 0.393336 0.481567 0.692372
336 2 0.343843 0.274942 0.589308
281 1 0.362535 0.114418 0.689942
134 1 0.430206 0.0664087 0.56131
57 1 0.466695 0.216151 0.604411
32 1 0.284077 0.0246615 0.533372
116 1 0.0725677 0.368738 0.724879
354 2 0.148673 0.0583729 0.501423
328 2 0.192854 0.391705 0.533156
106 1 0.222169 0.298743 0.626158
44 1 0.156998 0.453305 0.646781
9 1 0.0664744 0.332311 0.556124
8 1 0.433668 0.365024 0.593458
76 1 -0.0125458 0.455807 0.600474
133 1 0.316001 0.163971 0.520107
201 1 0.156949 0.225192 0.496477
87 1 0.177175 0.0684171 0.898411
310 2 0.184245 0.200201 0.891877
129 1 0.0604316 0.193433 0.838831
60 1 0.216088 0.171594 0.761187
24 1 0.252722 0.394348 0.750802
283 1 0.266162 0.290338 0.862671
55 1 0.297041 0.151845 0.948137
138 1 0.301562 0.0453318 0.814152
65 1 0.441079 0.0421965 0.877784
301 2 0.32693 0.181866 0.823641
96 1 0.479384 0.163493 0.779025
74 1 0.419063 0.241243 0.9011
317 2 0.330073 0.343141 0.957437
22 1 0.389418 0.378381 0.843298
293 2 0.0577531 0.273039 0.956573
12 1 0.257096 0.44642 0.917062
319 2 0.166044 0.464936 0.830063
162 1 0.118017 0.356583 0.870546
352 2 0.322846 0.483023 0.811943
322 2 0.148567 0.281744 0.769046
27 1 0.00506704 0.387725 0.966337
251 1 0.0988279 0.159392 0.996818
20 1 0.180996 0.306381 1.00198
165 1 0.083141 0.0630255 0.753825
272 1 0.0459674 0.610678 0.210903
31 1 0.0658016 0.655992 0.0215222
19 1 0.197883 0.683169 0.103471
169 1 0.189325 0.545228 0.184149
167 1 0.0643739 0.509624 0.0705962
23 1 0.432887 0.917743 0.202116
312 2 0.157847 0.668736 0.214291
315 2 0.328466 0.677103 0.106735
175 1 0.28925 0.654431 0.223599
108 1 0.334905 0.547496 0.113301
139 1 0.439881 0.648524 0.0636343
286 1 0.488415 0.50908 0.106185
100 1 0.00969333 0.847566 0.0281789
26 1 0.0749691 0.766928 0.16863
238 1 0.155695 0.83284 0.0570028
98 1 0.0984754 0.933228 0.163247
123 1 0.278102 0.807344 0.172995
51 1 0.444682 0.602767 0.235916
37 1 0.427499 0.760492 0.175431
307 2 0.285102 0.893574 0.0706001
213 1 0.440371 0.850529 0.0602167
234 1 0.501931 0.999418 0.0858014
145 1 0.245932 0.961032 0.168963
25 1 0.301257 0.772789 0.031113
80 1 0.184598 0.979469 0.0345635
73 1 0.206504 0.543996 0.0248303
13 1 0.122227 0.664595 0.462177
230 1 0.114922 0.54889 0.335955
255 1 0.116205 0.722347 0.323486
267 1 0.24761 0.637068 0.374674
256 1 0.383694 0.578637 0.401397
142 1 0.380189 0.71642 0.336151
284 1 0.326326 0.515276 0.266491
210 1 0.174133 0.862819 0.27802
339 2 0.117759 0.848695 0.393364
152 1 0.0456585 0.948203 0.459251
39 1 0.197207 0.94437 0.445059
10 1 0.237197 0.789675 0.420606
157 1 0.016511 0.885819 0.305189
211 1 0.00837248 0.79641 0.422117
121 1 0.378285 0.948135 0.442695
359 2 0.371021 0.821578 0.416811
48 1 0.466296 0.83894 0.339986
304 2 0.237611 0.748772 0.289932
264 1 0.320371 0.874388 0.312628
314 2 0.45366 0.966251 0.330973
353 2 0.239479 0.980801 0.320326
127 1 0.354763 0.703438 0.481106
259 1 0.104598 0.595139 0.617975
182 1 0.216443 0.716672 0.582089
235 1 0.168802 0.680622 0.733802
118 1 0.459943 0.837274 0.505931
271 1 0.0209441 0.717494 0.556157
161 1 0.423354 0.841203 0.65737
21 1 0.260957 0.554953 0.688999
202 1 0.478986 0.702129 0.586685
170 1 0.342219 0.681866 0.65903
158 1 0.422481 0.558941 0.549791
109 1 0.233989 0.575168 0.521732
276 1 0.121556 0.827655 0.521695
346 2 0.101266 0.769442 0.646387
45 1 0.237176 0.835414 0.695258
128 1 0.0379829 0.893853 0.709969
38 1 0.164875 0.95781 0.602599
321 2 0.0343831 0.936686 0.586838
147 1 0.316881 0.974371 0.669693
50 1 0.295673 0.865342 0.547631
316 2 0.417284 0.942966 0.574871
263 1 0.0113151 0.718117 0.728671
46 1 0.506638 0.599309 0.700696
81 1 0.462939 1.00482 0.705274
181 1 0.204633 0.583166 0.843711
212 1 0.0693899 0.667817 0.862556
102 1 0.186257 0.728785 0.939745
92 1 0.0854132 0.512088 0.921112
149 1 0.342468 0.897852 0.80239
146 1 0.325242 0.641426 0.949657
70 1 0.361273 0.594315 0.803858
95 1 0.243604 0.874837 0.933683
224 1 0.399621 0.502822 0.957056
221 1 0.281337 0.744163 0.813745
308 2 0.0798663 0.810236 0.933777
47 1 0.139882 0.80637 0.816826
14 1 0.0723419 0.937192 0.912219