ITEM: TIMESTEP
0
ITEM: NUMBER OF ATOMS
360
ITEM: BOX BOUNDS pp pp pp
0.0000000000000000e+00 6.6943295008216896e+00
0.0000000000000000e+00 6.6943295008216896e+00
0.0000000000000000e+00 6.6943295008216896e+00
ITEM: ATOMS id type xs ys zs
209 1 0.235738 0.204589 0.0237897
130 1 0.0867941 0.0993538 0.0576489
194 1 0.147448 0.132427 0.192319
353 2 0.0386598 0.239172 0.0798049
324 2 0.0177264 0.0554392 0.155936
173 1 0.236891 0.0365908 0.0594007
331 2 0.366733 0.176458 0.0893939
144 1 0.404984 0.0414562 0.0923488
53 1 0.424263 0.201389 0.197928
217 1 0.277505 0.244908 0.17788
201 1 0.295985 0.103072 0.175309
186 1 0.416986 0.0244823 0.239808
236 1 0.48975 0.242124 0.0551314
57 1 0.113846 0.296007 0.175162
228 1 0.0952539 0.445514 0.134058
66 1 0.23055 0.36143 0.0960879
273 1 0.101158 0.344423 0.0152354
344 2 0.124248 0.467759 0.00260436
24 1 0.48724 0.353147 0.153426
90 1 0.343041 0.388902 0.195519
129 1 0.357585 0.305117 0.0364942
192 1 0.386743 0.48336 0.0732988
291 2 0.454345 0.384521 0.0215154
254 1 0.081318 0.191788 0.319693
230 1 0.142699 0.0945344 0.438147
325 2 0.0844671 0.213574 0.438909
293 2 0.0286142 0.0480202 0.409532
112 1 0.248708 0.178365 0.33203
246 1 0.189196 0.0354028 0.297694
167 1 0.0248081 0.0295474 0.277498
294 2 0.320367 0.0658047 0.305532
271 1 0.29578 0.0603189 0.436925
104 1 0.43523 0.169358 0.351492
84 1 0.336642 0.235333 0.464651
19 1 0.440483 0.00888912 0.385453
96 1 0.0333567 0.355884 0.299183
11 1 0.168114 0.295879 0.399721
283 1 0.124733 0.475954 0.400854
313 2 0.194718 0.27387 0.275194
35 1 0.186012 0.400189 0.271045
354 2 0.461351 0.302419 0.266738
141 1 0.302418 0.441932 0.392591
165 1 0.321076 0.303728 0.313836
213 1 0.443252 0.42252 0.309444
216 1 0.447425 0.341089 0.433703
326 2 0.110033 0.148352 0.581097
51 1 0.190468 0.162429 0.691093
265 1 0.197168 0.0613851 0.57838
195 1 0.200552 0.207639 0.533497
111 1 0.0213082 0.0595435 0.672202
23 1 0.0124878 0.131635 0.510567
342 2 0.0939762 0.00624636 0.525287
320 2 0.472793 0.148977 0.633
81 1 0.389928 0.0606123 0.666009
110 1 0.356055 0.204207 0.633943
25 1 0.423851 0.118688 0.52227
316 2 0.497729 0.0194105 0.509102
188 1 0.0775005 0.250037 0.655761
247 1 0.104392 0.408552 0.732649
64 1 0.0787271 0.319433 0.519759
73 1 0.217114 0.372086 0.538554
323 2 0.0925715 0.410858 0.607388
10 1 0.236375 0.317672 0.684346
172 1 0.207827 0.499616 0.650032
335 2 0.306362 0.458977 0.567678
148 1 0.351007 0.344154 0.56535
153 1 0.484993 0.254648 0.563702
109 1 0.485497 0.428814 0.600698
17 1 0.457175 0.308375 0.705261
218 1 0.345214 0.45982 0.693629
287 1 0.18649 0.0690838 0.918621
62 1 0.101544 0.216663 0.939189
69 1 0.0885686 0.128703 0.797841
89 1 0.166009 0.0105062 0.765097
114 1 0.262881 0.188989 0.872551
78 1 0.40686 0.160691 0.956306
295 2 0.314225 0.0594429 0.965492
40 1 0.425295 0.174613 0.776374
333 2 0.484822 0.0874906 0.849223
142 1 0.33663 0.0679601 0.818958
300 2 0.292681 0.20959 0.753201
75 1 0.00331833 0.358402 0.865739
30 1 0.154345 0.280877 0.805631
9 1 0.230614 0.316446 0.932863
160 1 0.121882 0.44403 0.880571
233 1 0.472669 0.451236 0.779016
231 1 0.385564 0.419721 0.904249
315 2 0.357149 0.272975 0.910823
47 1 0.486885 0.297807 0.867949
198 1 0.337942 0.330054 0.796296
93 1 0.257884 0.459826 0.99208
210 1 0.260116 0.48279 0.815147
183 1 0.152587 0.646073 0.117583
358 2 0.0553291 0.570488 0.161991
99 1 0.0701573 0.571375 0.0101563
340 2 0.249026 0.58592 0.0368662
242 1 0.0122266 0.650842 0.240564
211 1 0.25014 0.521378 0.149671
131 1 0.278412 0.663694 0.197749
55 1 0.393628 0.643002 0.0984284
278 1 0.381464 0.540653 0.21726
134 1 0.271067 0.712838 0.031931
147 1 0.494617 0.579292 0.00410967
46 1 0.0434808 0.79316 0.206337
166 1 0.167291 0.796259 0.128064
67 1 0.120195 0.971804 0.159021
152 1 0.0281097 0.835468 0.0620461
83 1 0.156476 0.90794 0.0194023
328 2 0.386689 0.772878 0.0515681
317 2 0.422867 0.908112 0.118346
178 1 0.328398 0.802709 0.162052
261 1 0.341083 0.909663 0.0282256
136 1 0.286627 0.952121 0.199002
98 1 0.483651 0.780655 0.143012
97 1 0.49171 0.852895 0.00939638
185 1 0.212219 0.716754 0.478045
45 1 0.0865143 0.637986 0.390252
139 1 0.240513 0.605661 0.359732
205 1 0.152373 0.699449 0.26266
79 1 0.137633 0.543132 0.25384
227 1 0.463467 0.577485 0.350198
347 2 0.265573 0.501796 0.273075
277 1 0.364488 0.651228 0.451325
54 1 0.396229 0.504794 0.489545
149 1 0.424853 0.688641 0.256361
321 2 0.0293958 0.903502 0.277116
193 1 0.174424 0.863837 0.267285
222 1 0.0624118 0.800892 0.359516
262 1 0.120763 0.938497 0.385175
329 2 0.19224 0.821837 0.401758
280 1 0.223484 0.925803 0.497337
305 2 0.426858 0.880987 0.418692
151 1 0.458927 0.754037 0.400738
102 1 0.299727 0.917055 0.35647
68 1 0.425477 0.863631 0.279857
88 1 0.29283 0.76254 0.335174
176 1 0.336287 0.816149 0.485222
319 2 0.0494682 0.612243 0.645178
107 1 0.0809571 0.6855 0.541577
1 1 0.196925 0.648406 0.636542
117 1 0.0598607 0.535864 0.52042
302 2 0.221297 0.748978 0.730025
121 1 0.23107 0.551295 0.502383
303 2 0.305775 0.726699 0.569282
159 1 0.435519 0.728284 0.575143
105 1 0.346112 0.589502 0.5978
125 1 0.345389 0.715684 0.691307
65 1 0.474934 0.584471 0.680656
337 2 0.287551 0.5854 0.715439
119 1 0.104864 0.836863 0.522617
349 2 0.00239294 0.823989 0.605505
12 1 0.0997759 0.767086 0.678817
133 1 0.123411 0.934271 0.638726
284 1 0.288803 0.950097 0.722665
196 1 0.408887 0.863341 0.661324
128 1 0.36018 0.966233 0.548065
42 1 0.252225 0.817643 0.622721
140 1 0.47333 0.866489 0.527132
357 2 0.0425121 0.636504 0.882177
177 1 0.138897 0.570555 0.769491
206 1 0.103059 0.730387 0.834414
164 1 0.192368 0.584197 0.925591
158 1 0.118254 0.72379 0.998122
270 1 0.253453 0.684212 0.832178
146 1 0.352089 0.584145 0.963193
7 1 0.3808 0.594394 0.803711
76 1 0.427811 0.713835 0.934913
304 2 0.438994 0.539474 0.893427
327 2 0.399664 0.720598 0.813542
132 1 0.0238085 0.982599 0.991933
61 1 0.166901 0.859828 0.783773
241 1 0.0484066 0.864098 0.88535
60 1 0.0131058 0.998379 0.831708
124 1 0.225061 0.810435 0.928631
298 2 0.127286 0.962574 0.888154
338 2 0.00205783 0.782995 0.787036
161 1 0.449479 0.9627 0.78475
267 1 0.333618 0.832326 0.807615
155 1 0.477769 0.833051 0.852749
59 1 0.264079 0.948356 0.893963
359 2 0.384643 0.89632 0.907597
33 1 0.436099 0.998778 0.950082
41 1 0.633369 0.128206 0.0196672
118 1 0.672163 0.141006 0.232054
200 1 0.530979 0.105264 0.145794
249 1 0.733263 0.244268 0.0254085
113 1 0.617677 0.243044 0.135551
297 2 0.748591 0.238003 0.169771
80 1 0.683653 0.00197197 0.137233
301 2 0.512554 0.0923415 0.00215514
123 1 0.771905 0.107736 0.0891086
4 1 0.869953 0.224319 0.107313
71 1 0.934797 0.106202 0.0575006
72 1 0.878061 0.0799882 0.207426
100 1 0.999956 0.178861 0.189072
245 1 0.610197 0.384579 0.228696
180 1 0.705771 0.361846 0.112669
21 1 0.580958 0.44287 0.0496716
91 1 0.965539 0.352288 0.144481
189 1 0.84708 0.383818 0.0356208
37 1 0.831685 0.399053 0.184201
281 1 0.990431 0.485529 0.248943
199 1 0.559876 0.207101 0.44103
20 1 0.613262 0.071162 0.432092
138 1 0.548128 0.0785007 0.29793
346 2 0.666758 0.169839 0.363808
135 1 0.563236 0.244602 0.294788
82 1 0.689287 0.00663084 0.292476
137 1 0.780796 0.106489 0.361181
126 1 0.940641 0.132279 0.354627
257 1 0.882143 0.0241765 0.48659
14 1 0.860388 0.188216 0.479384
13 1 0.71567 0.256317 0.455712
127 1 0.611457 0.368287 0.379023
219 1 0.725555 0.298851 0.279862
272 1 0.547139 0.47968 0.451834
181 1 0.717261 0.461966 0.484635
307 2 0.732122 0.443245 0.263368
341 2 0.913933 0.407173 0.315617
5 1 0.902825 0.263957 0.25667
351 2 0.838355 0.266889 0.380035
63 1 0.970863 0.424757 0.428521
239 1 0.971989 0.277185 0.408572
191 1 0.793949 0.401189 0.37096
350 2 0.840177 0.471226 0.458448
208 1 0.848988 0.340192 0.493272
214 1 0.578842 0.108043 0.573271
311 2 0.674831 0.140959 0.644571
70 1 0.736555 0.108103 0.523164
314 2 0.639386 0.216427 0.541488
115 1 0.687264 0.0124504 0.639052
260 1 0.547999 0.104041 0.73067
31 1 0.919711 0.178772 0.636659
274 1 0.795245 0.128935 0.677871
94 1 0.611534 0.254595 0.659926
237 1 0.614959 0.354082 0.540455
229 1 0.70125 0.395672 0.666208
360 2 0.574106 0.372681 0.669801
225 1 0.848575 0.296865 0.726113
334 2 0.946674 0.265304 0.529302
289 2 0.933005 0.418788 0.543339
39 1 0.950909 0.334063 0.630853
285 1 0.769502 0.256253 0.594348
49 1 0.821983 0.438251 0.609999
103 1 0.987061 0.487339 0.656844
343 2 0.988624 0.36301 0.744891
175 1 0.599268 0.19351 0.885668
28 1 0.746856 0.135015 0.930807
157 1 0.696246 0.0654383 0.792791
15 1 0.713976 0.222419 0.769263
108 1 0.59563 0.0215091 0.892811
339 2 0.537769 0.228077 0.78047
56 1 0.985269 0.237573 0.779738
2 1 0.855832 0.162469 0.824724
243 1 0.860052 0.000176298 0.967896
163 1 0.973778 0.119748 0.910385
184 1 0.86309 0.0149064 0.80087
299 2 0.852477 0.178526 0.987359
348 2 0.962527 0.10224 0.776255
234 1 0.614413 0.480668 0.760518
309 2 0.705292 0.264258 0.907351
3 1 0.558214 0.464267 0.901563
221 1 0.705767 0.424452 0.957031
212 1 0.598263 0.334797 0.786293
207 1 0.73686 0.38864 0.813114
58 1 0.601677 0.307461 0.974375
258 1 0.837451 0.294726 0.889504
169 1 0.876486 0.443374 0.762243
150 1 0.972993 0.435923 0.9872
18 1 0.839559 0.47266 0.904857
282 1 0.955035 0.25673 0.987835
86 1 0.573955 0.634583 0.139393
87 1 0.688369 0.517147 0.155628
168 1 0.723324 0.679466 0.0811006
252 1 0.57371 0.716564 0.0039952
224 1 0.520907 0.501124 0.19234
34 1 0.983546 0.67552 0.0797102
215 1 0.849629 0.629161 0.158138
171 1 0.942798 0.510071 0.111476
253 1 0.795489 0.53356 0.0471839
116 1 0.844796 0.718498 0.00468657
95 1 0.534996 0.933034 0.196632
92 1 0.635343 0.843353 0.103148
330 2 0.663606 0.90602 0.219104
279 1 0.731612 0.766015 0.208191
275 1 0.562751 0.98237 0.0413216
286 1 0.883571 0.869922 0.0449428
322 2 0.778997 0.808991 0.0959523
232 1 0.800055 0.908549 0.183954
52 1 0.958439 0.944448 0.164108
204 1 0.879164 0.775462 0.167393
318 2 0.86182 0.999334 0.0989679
32 1 0.584262 0.661109 0.31472
256 1 0.705918 0.724899 0.391536
48 1 0.645966 0.614163 0.471353
223 1 0.722057 0.619175 0.252372
255 1 0.627785 0.511342 0.326003
248 1 0.844211 0.697867 0.495979
268 1 0.774936 0.584096 0.410419
145 1 0.842878 0.707913 0.314131
85 1 0.946768 0.571828 0.374615
355 2 0.962525 0.704718 0.359596
8 1 0.842404 0.530741 0.275948
356 2 0.964788 0.645974 0.491982
235 1 0.579614 0.80856 0.262089
74 1 0.731654 0.862666 0.321428
36 1 0.576345 0.921039 0.370302
332 2 0.686974 0.860567 0.447569
259 1 0.593454 0.784178 0.468048
174 1 0.735119 0.974384 0.439942
101 1 0.828958 0.852391 0.441596
190 1 0.844431 0.971798 0.325251
120 1 0.921546 0.841386 0.302115
182 1 0.979843 0.937684 0.421091
29 1 0.969466 0.773432 0.476192
143 1 0.606065 0.681434 0.598891
203 1 0.733714 0.670036 0.730871
306 2 0.729045 0.521656 0.686503
162 1 0.506068 0.723183 0.72547
308 2 0.601026 0.605431 0.715367
77 1 0.620981 0.51302 0.598733
122 1 0.50392 0.618351 0.503432
22 1 0.756426 0.590772 0.57868
156 1 0.94404 0.685746 0.609249
220 1 0.879936 0.579443 0.69294
312 2 0.816311 0.719102 0.634123
263 1 0.898318 0.55328 0.538922
244 1 0.723019 0.772849 0.550201
251 1 0.523373 0.971941 0.64056
187 1 0.592448 0.820992 0.613134
250 1 0.608529 0.935646 0.511293
290 2 0.527803 0.860845 0.711688
276 1 0.88952 0.776471 0.727175
154 1 0.8816 0.828177 0.58183
288 1 0.968733 0.89886 0.722002
38 1 0.751427 0.850698 0.675549
352 2 0.837341 0.914798 0.740788
310 2 0.755462 0.940865 0.566221
44 1 0.991221 0.945596 0.572899
269 1 0.850466 0.985224 0.636561
26 1 0.683715 0.695469 0.899029
292 2 0.5714 0.739957 0.868814
202 1 0.743178 0.563264 0.844423
197 1 0.550267 0.606377 0.830108
43 1 0.646732 0.575888 0.99444
106 1 0.994793 0.523394 0.839774
238 1 0.995717 0.655274 0.753625
50 1 0.843234 0.681618 0.852063
296 2 0.873196 0.558311 0.818507
240 1 0.967711 0.73899 0.905951
345 2 0.775164 0.62521 0.953013
264 1 0.928577 0.596419 0.962201
170 1 0.737681 0.903871 0.824965
179 1 0.612204 0.861751 0.913157
266 1 0.637119 0.782663 0.774351
226 1 0.605524 0.944469 0.753997
6 1 0.744461 0.823994 0.953277
16 1 0.714185 0.984705 0.989988
336 2 0.759582 0.784423 0.824067
27 1 0.893562 0.865576 0.855453
ITEM: TIMESTEP
70000
ITEM: NUMBER OF ATOMS
360
ITEM: BOX BOUNDS pp pp pp
0.0000000000000000e+00 6.6943295008216896e+00
0.0000000000000000e+00 6.6943295008216896e+00
0.0000000000000000e+00 6.6943295008216896e+00
ITEM: ATOMS id type xs ys zs
287 1 0.213703 0.0597081 0.192138
130 1 0.0678324 0.15006 0.114505
194 1 0.220077 0.297792 0.150263
241 1 0.236947 0.166827 0.0917738
295 2 0.172032 0.0667357 0.0713051
236 1 0.371404 0.240105 0.213795
160 1 0.278681 0.431739 0.0328102
209 1 0.358831 0.0744638 0.149407
301 2 0.430572 0.0290253 0.0549594
175 1 0.374767 0.143803 0.0182721
24 1 0.456398 0.487914 0.189521
66 1 0.076879 0.297446 0.050336
297 2 0.262121 0.175542 0.222253
254 1 0.160956 0.435868 0.140473
239 1 0.0332142 0.292721 0.198744
129 1 0.332374 0.38771 0.191722
245 1 0.376079 0.302435 0.0604942
291 2 0.420161 0.416355 0.0960554
165 1 0.494291 0.343642 0.239891
166 1 0.0740847 0.00695584 0.246638
315 2 0.434367 0.0134267 0.237043
329 2 0.0175496 0.119359 0.226927
325 2 0.150428 0.354983 0.236303
57 1 0.00522363 0.418893 0.106805
112 1 0.17914 0.061696 0.348637
342 2 0.0790778 0.146288 0.400231
195 1 0.194325 0.192431 0.424388
182 1 0.0340637 0.0331478 0.380418
109 1 0.276821 0.481678 0.431068
281 1 0.0748049 0.457024 0.274828
228 1 0.388371 0.44639 0.331885
95 1 0.490503 0.0337658 0.370348
300 2 0.294537 0.0803647 0.431449
346 2 0.482332 0.146002 0.446867
104 1 0.36534 0.179359 0.384785
41 1 0.333189 0.0579441 0.300425
271 1 0.158488 0.0402445 0.502066
14 1 0.107502 0.311291 0.348351
96 1 0.230318 0.44435 0.286905
323 2 0.214233 0.356207 0.408968
5 1 0.110893 0.43905 0.429433
217 1 0.2606 0.290541 0.301268
80 1 0.475069 0.136394 0.262599
344 2 0.401342 0.290169 0.32888
151 1 0.487502 0.386972 0.416661
11 1 0.334751 0.336848 0.430327
13 1 -0.0027155 0.290808 0.443113
216 1 0.440029 0.254902 0.495446
84 1 0.374536 0.000893706 0.496091
230 1 0.142326 0.181264 0.258787
262 1 0.114274 0.0799618 0.667963
51 1 0.200005 0.201636 0.638253
269 1 0.00361092 0.297479 0.609491
246 1 0.074644 0.165668 0.537483
89 1 0.259301 0.0518555 0.626509
231 1 0.313469 0.423745 0.680008
81 1 0.358268 0.181763 0.694287
320 2 0.453686 0.12885 0.573384
110 1 0.306617 0.291763 0.560427
153 1 0.41486 0.0438006 0.662218
78 1 0.490103 0.235456 0.644453
348 2 0.0545628 0.196679 0.666216
188 1 0.15428 0.318474 0.526261
247 1 0.189733 0.472984 0.559774
10 1 0.135946 0.341815 0.690159
103 1 0.00580308 0.445634 0.571004
343 2 0.280674 0.29109 0.72506
360 2 0.409004 0.324894 0.619269
65 1 0.460881 0.439528 0.676843
35 1 0.392016 0.434883 0.540819
148 1 0.330167 0.141438 0.539894
311 2 0.463839 0.134902 0.730802
296 2 0.00157644 0.414568 0.697317
339 2 0.216751 0.114642 0.745741
111 1 0.121084 0.0656621 0.842719
282 1 0.121667 0.447749 0.992925
173 1 0.129198 0.17832 0.948168
15 1 0.00514924 0.306823 0.761742
213 1 0.480537 0.404929 0.968336
47 1 0.361239 0.33635 0.898234
7 1 0.33419 0.482058 0.883594
40 1 0.260819 0.210139 0.826816
144 1 0.409569 0.172412 0.854577
275 1 0.254102 0.0789972 0.917875
33 1 0.388873 0.0227336 0.926258
114 1 0.317851 0.0508249 0.781057
30 1 0.126382 0.206478 0.76991
69 1 0.0885816 0.450708 0.815225
198 1 0.237688 0.385612 0.808538
106 1 0.114662 0.319808 0.893722
60 1 0.0691593 0.0452045 0.99847
304 2 0.480839 0.310148 0.860109
337 2 0.185837 0.488676 0.891013
17 1 0.417214 0.304845 0.755658
3 1 0.491071 0.231721 0.971349
249 1 0.488227 0.441072 0.822542
93 1 0.238884 0.290126 0.977874
193 1 0.188802 0.667032 0.0867399
146 1 0.396601 0.53987 0.0378002
341 2 0.0327581 0.534668 0.025075
242 1 0.0244931 0.714073 0.158418
99 1 0.0739236 0.575812 0.1509
97 1 0.294005 0.977011 0.0514888
252 1 0.488689 0.799026 0.0633075
158 1 0.0605299 0.810495 0.0358274
211 1 0.343562 0.717843 0.0306664
278 1 0.465154 0.663268 0.133921
90 1 0.318414 0.692913 0.183271
273 1 0.273999 0.542143 0.148634
353 2 0.175568 0.549569 0.231896
136 1 0.292846 0.831429 0.132318
264 1 0.154918 0.803689 0.154422
178 1 0.121998 0.951178 0.107199
326 2 0.310028 0.96967 0.201341
79 1 0.155997 0.682499 0.242466
98 1 0.413362 0.928332 0.138354
68 1 0.44896 0.794932 0.217186
328 2 0.180601 0.537404 0.0695579
131 1 0.212891 0.854601 0.00798352
335 2 0.21558 0.574634 0.505481
145 1 0.15166 0.570418 0.372473
185 1 0.210597 0.788825 0.454829
324 2 0.22421 0.679597 0.355817
107 1 0.0890095 0.691301 0.421401
280 1 0.362985 0.830012 0.443432
73 1 0.283985 0.588082 0.298386
88 1 0.296766 0.664685 0.450813
227 1 0.412013 0.564369 0.415543
277 1 0.406918 0.697674 0.346121
205 1 0.210237 0.920436 0.240768
120 1 0.124706 0.81418 0.324586
305 2 0.123598 0.939937 0.345735
201 1 0.261736 0.948083 0.402804
206 1 0.0985289 0.901682 0.466575
149 1 0.275568 0.796892 0.309344
316 2 0.475242 0.903805 0.485325
102 1 0.386781 0.918829 0.293221
340 2 0.405843 0.562823 0.270385
319 2 0.0127588 0.801125 0.443322
8 1 0.0194886 0.635411 0.287611
105 1 0.186543 0.631367 0.631851
121 1 0.0450758 0.675137 0.637297
283 1 0.041439 0.5898 0.518368
42 1 0.288454 0.830618 0.736927
139 1 0.420686 0.696925 0.517241
169 1 0.088616 0.50264 0.675179
298 2 0.31336 0.947386 0.680906
162 1 0.409532 0.748544 0.674263
125 1 0.326317 0.575506 0.594315
222 1 0.232305 0.914721 0.565204
284 1 0.385037 0.882459 0.60652
12 1 0.109202 0.795727 0.571985
288 1 0.0923606 0.936806 0.620242
357 2 0.169552 0.848911 0.672854
172 1 0.163003 0.729662 0.74174
1 1 0.27147 0.756258 0.591436
267 1 0.300767 0.665637 0.730142
59 1 0.193582 0.964845 0.747238
61 1 0.223945 0.530379 0.743104
308 2 0.482376 0.870011 0.685671
22 1 0.491053 0.620372 0.647584
164 1 0.140341 0.600033 0.861489
210 1 0.257511 0.584331 0.987698
359 2 0.271021 0.614386 0.847664
124 1 0.0875419 0.748835 0.890514
302 2 0.0658938 0.976429 0.759481
76 1 0.279179 0.9143 0.884976
218 1 0.388141 0.631109 0.895375
327 2 0.474468 0.523709 0.913046
122 1 0.402054 0.5629 0.756197
142 1 0.407931 0.928436 0.806343
358 2 0.177725 0.677912 0.951068
333 2 0.179386 0.848804 0.825846
116 1 0.0771927 0.848003 0.754512
331 2 0.185251 0.98164 0.96608
161 1 0.402823 0.776264 0.822948
134 1 0.0987049 0.908744 0.903306
55 1 0.388762 0.847893 0.963977
270 1 0.253003 0.752891 0.887232
177 1 -0.00149637 0.59962 0.767433
183 1 0.0351063 0.661993 1.00058
58 1 0.655714 0.124969 0.0774104
108 1 0.526212 0.0640507 0.132302
118 1 0.637354 0.245562 0.251059
180 1 0.649025 0.281766 0.0511984
354 2 0.872257 0.441532 0.133288
91 1 0.930365 0.281734 0.0529058
62 1 0.511818 0.222503 0.123599
261 1 0.962418 0.0274746 0.141157
286 1 0.801363 0.0510621 0.0940976
67 1 0.923997 0.178369 0.1747
351 2 0.83125 0.0985483 0.20477
137 1 0.765612 0.210202 0.154524
100 1 0.922847 0.12466 0.0249819
82 1 0.634796 0.0966711 0.238257
4 1 0.791161 0.365144 0.0573323
224 1 0.606559 0.490472 0.220303
135 1 0.549623 0.380277 0.106396
219 1 0.697322 0.364563 0.182371
37 1 0.877303 0.337596 0.192866
181 1 0.783416 0.492521 0.237195
113 1 0.630584 0.111759 0.389745
199 1 0.674045 0.263441 0.39716
208 1 0.879147 0.414489 0.451608
20 1 0.761798 0.139476 0.477839
126 1 0.760887 0.151236 0.298009
293 2 0.810244 0.0769555 0.385237
330 2 0.65836 -0.000192207 0.318024
23 1 0.988583 0.199964 0.325418
63 1 0.753786 0.481159 0.399587
313 2 0.868619 0.242471 0.276772
272 1 0.772251 0.352156 0.315007
141 1 0.642974 0.417608 0.485722
127 1 0.620174 0.387176 0.330443
167 1 0.916081 0.0793539 0.2996
214 1 0.845467 0.247649 0.404894
53 1 0.522694 0.24128 0.361167
191 1 0.951742 0.378457 0.321982
332 2 0.870087 0.477882 0.328328
314 2 0.754796 0.350342 0.44523
350 2 0.582746 0.29221 0.46551
70 1 0.936482 0.134245 0.465671
347 2 0.505323 0.46711 0.304949
251 1 0.566481 0.100918 0.67129
263 1 0.8858 0.390123 0.661265
94 1 0.706038 0.182468 0.672235
237 1 0.704939 0.284231 0.533273
250 1 0.666723 0.0363437 0.544833
25 1 0.576791 0.177009 0.524913
285 1 0.815414 0.0816322 0.600118
225 1 0.936588 0.157474 0.623823
49 1 0.841582 0.230758 0.713202
64 1 0.868329 0.273908 0.552211
202 1 0.733793 0.372635 0.675353
248 1 0.787834 0.477127 0.562777
268 1 0.527932 0.364921 0.565584
356 2 0.619187 0.280063 0.614991
77 1 0.590762 0.344268 0.726222
265 1 1.00424 0.0202954 0.548013
138 1 0.515137 0.0209168 0.539556
156 1 0.79246 0.496827 0.744469
212 1 0.661567 0.0858602 0.801125
229 1 0.636173 0.180027 0.92777
233 1 0.561248 0.209365 0.783804
75 1 0.982829 0.382052 0.93837
157 1 0.518962 0.0866474 0.980592
338 2 0.868764 0.00689991 0.987734
207 1 0.734163 0.0731429 0.949311
309 2 0.772501 0.189681 0.861617
163 1 0.87029 0.115611 0.886465
38 1 0.814698 0.053483 0.766765
318 2 0.716791 0.315917 0.922893
221 1 0.704658 0.285223 0.801239
71 1 0.850915 0.273469 0.863042
56 1 0.800552 0.412152 0.885735
9 1 0.597508 0.328134 0.892443
123 1 0.661635 0.449243 0.81389
238 1 0.93454 0.45474 0.805533
2 1 0.797547 0.216523 0.99971
289 2 0.810134 0.360424 0.766355
28 1 0.990527 0.146151 0.768358
21 1 0.677245 0.432774 0.987268
274 1 0.510344 0.0547577 0.817089
39 1 0.986278 0.219032 0.908203
43 1 0.873119 0.489299 0.997856
184 1 0.979233 0.0132037 0.865196
253 1 0.653299 0.650597 0.0240492
147 1 0.742529 0.522561 0.0930793
215 1 0.616321 0.660372 0.171424
86 1 0.548752 0.529443 0.0603968
16 1 0.745167 0.783594 0.145495
87 1 0.9 0.585272 0.106111
310 2 0.922498 0.957017 0.248094
189 1 0.764473 0.643319 0.187835
150 1 0.917897 0.760293 0.0607082
322 2 0.817633 0.654645 0.0482419
46 1 0.882013 0.723437 0.207115
243 1 0.754394 0.930322 0.00360559
92 1 0.606077 0.801016 0.211699
232 1 0.84719 0.902919 0.130331
200 1 0.509471 0.940199 0.0190193
292 2 0.54397 0.890022 0.13657
179 1 0.664222 0.948544 0.143662
152 1 0.990284 0.869686 0.173673
266 1 0.634268 0.820745 0.0355677
83 1 0.967426 0.930588 0.0138699
255 1 0.943817 0.518436 0.227022
72 1 0.77433 0.999342 0.247228
259 1 0.537155 0.672327 0.434841
317 2 0.599885 0.683646 0.316134
244 1 0.6746 0.590677 0.310516
29 1 0.995909 0.883426 0.331256
45 1 0.983037 0.517756 0.378255
223 1 0.572137 0.519181 0.395431
34 1 0.719489 0.736897 0.299216
321 2 0.969416 0.641569 0.42716
290 2 0.748048 0.661538 0.39296
279 1 0.843312 0.609782 0.322329
48 1 0.874645 0.578464 0.484781
101 1 0.908825 0.756911 0.370893
140 1 0.646206 0.782148 0.450445
19 1 0.583309 0.929055 0.443775
36 1 0.726203 0.984541 0.42846
74 1 0.665623 0.87274 0.316206
204 1 0.549101 0.945924 0.249502
257 1 0.867891 0.959844 0.381154
190 1 0.81977 0.847466 0.283341
174 1 0.793141 0.838793 0.445038
32 1 0.68273 0.591268 0.48811
235 1 0.51795 0.605331 0.287625
355 2 0.985835 0.752711 0.276315
186 1 0.502669 0.823893 0.3703
176 1 0.608043 0.697445 0.575666
54 1 0.525004 0.526245 0.542368
276 1 0.830643 0.872615 0.715629
187 1 0.754748 0.609022 0.638682
31 1 0.723397 0.970502 0.698067
117 1 0.917183 0.538283 0.645378
220 1 0.851257 0.724366 0.66706
256 1 0.792181 0.702718 0.511046
85 1 0.941025 0.728786 0.529088
143 1 0.71185 0.731698 0.75412
352 2 0.846659 0.808413 0.561749
303 2 0.680848 0.851678 0.726982
133 1 0.590647 0.914683 0.629758
6 1 0.717587 0.808828 0.61436
44 1 0.974476 0.822807 0.637222
128 1 0.515657 0.807875 0.55029
334 2 0.679459 0.88992 0.507134
306 2 0.544947 0.530286 0.745021
115 1 0.816483 0.937497 0.56584
132 1 0.946937 0.983165 0.69833
196 1 0.568466 0.773775 0.723155
119 1 0.941683 0.8796 0.492858
159 1 0.627173 0.496834 0.655404
258 1 1.00045 0.530704 0.905317
168 1 0.753203 0.560894 0.914016
312 2 0.746508 0.675327 0.86623
197 1 0.640036 0.72052 0.887462
192 1 0.599837 0.56371 0.910355
27 1 0.771384 0.751782 0.993273
203 1 0.837784 0.634446 0.787978
50 1 0.888779 0.652309 0.940502
234 1 0.515731 0.655204 0.796654
299 2 0.867565 0.544706 0.870913
294 2 0.727787 0.992534 0.84328
307 2 0.499212 0.956909 0.89751
170 1 0.591087 0.937747 0.781631
52 1 0.624917 0.978364 0.932524
226 1 0.697485 0.85958 0.860285
349 2 0.941764 0.890157 0.788099
171 1 0.667309 0.595841 0.782998
26 1 0.825113 0.780703 0.854154
154 1 0.850637 0.935903 0.880215
345 2 0.860651 0.858096 1.00238
18 1 0.964595 0.824424 0.911333
240 1 0.952006 0.754762 0.783819
260 1 0.527114 0.833287 0.892738
155 1 0.504554 0.683627 0.967955
336 2 0.991241 0.66522 0.870106
ITEM: TIMESTEP
140000
ITEM: NUMBER OF ATOMS
360
ITEM: BOX BOUNDS pp pp pp
0.0000000000000000e+00 6.6943295008216896e+00
0.0000000000000000e+00 6.6943295008216896e+00
0.0000000000000000e+00 6.6943295008216896e+00
ITEM: ATOMS id type xs ys zs
209 1 0.17689 0.163712 0.0945526
100 1 0.0284716 0.100773 0.0852466
254 1 0.0801376 0.440269 0.233916
338 2 0.0264937 0.0166717 0.193217
91 1 0.0131988 0.243622 0.0734058
41 1 0.163626 0.0517637 0.203886
300 2 0.272231 0.249768 0.114325
157 1 0.308859 0.133522 0.171209
3 1 0.392639 0.2018 0.0588351
93 1 0.363417 0.476741 0.185779
295 2 0.389715 0.0582674 0.0694816
96 1 0.397532 0.293293 0.185974
325 2 0.290944 0.379278 0.200371
328 2 0.129856 0.279485 0.0449667
99 1 0.0769322 0.394076 0.0854364
282 1 0.1659 0.307711 0.16138
273 1 0.217533 0.483247 0.158939
344 2 0.484532 0.211094 0.191194
129 1 0.108746 0.193548 0.241128
173 1 0.310559 0.357479 0.0727149
318 2 0.490174 0.311029 0.090331
58 1 0.497739 0.0999179 0.151593
14 1 0.00243143 0.296552 0.223324
60 1 0.148609 0.0281387 0.0162409
230 1 0.167246 0.178443 0.411683
293 2 0.0763296 0.0870268 0.460892
246 1 0.179981 0.0222053 0.46947
182 1 0.0528644 0.0648451 0.333248
239 1 0.0217671 0.223356 0.365604
62 1 0.409499 0.149673 0.283788
112 1 0.246825 0.0767566 0.321902
78 1 0.312005 0.184171 0.4009
350 2 0.443537 0.219449 0.411791
353 2 0.0337319 0.344387 0.339031
84 1 0.345324 0.0311722 0.444546
323 2 0.428303 0.461966 0.301252
67 1 0.280117 0.250402 0.262237
104 1 0.49526 0.0999083 0.395999
236 1 0.373934 0.336159 0.339366
81 1 0.105243 0.297459 0.475033
109 1 0.159289 0.318538 0.313143
107 1 0.0869256 0.441746 0.391452
231 1 0.254795 0.36167 0.450808
11 1 0.251063 0.436607 0.314409
54 1 0.464027 0.388608 0.452611
311 2 0.478405 0.0177335 0.489813
315 2 0.496551 0.0534126 0.279959
80 1 0.367966 0.0129644 0.259951
228 1 0.372175 0.496401 0.407752
343 2 0.225863 0.249874 0.48982
265 1 0.134346 0.151223 0.564729
262 1 0.155 0.230893 0.713567
12 1 0.147524 0.0730088 0.692168
342 2 0.259536 0.114553 0.733934
148 1 0.270574 0.0406711 0.602756
116 1 0.0311344 0.0367408 0.557612
216 1 0.37371 0.27803 0.513177
114 1 0.381896 0.0809208 0.692135
17 1 0.424923 0.12519 0.545054
65 1 0.281027 0.198473 0.611649
30 1 0.0272929 0.442323 0.703328
304 2 0.332783 0.308593 0.646161
268 1 0.416056 0.399144 0.606594
51 1 0.0328652 0.311357 0.618269
110 1 0.167272 0.476531 0.696754
10 1 0.117792 0.449339 0.554308
198 1 0.189012 0.324524 0.599701
251 1 0.442479 0.223962 0.660702
125 1 0.270329 0.457553 0.569618
225 1 0.0105872 0.14363 0.661525
355 2 0.27031 0.124571 0.50554
59 1 0.0180943 -0.000863755 0.738513
289 2 0.119385 0.362911 0.705809
61 1 0.329997 0.469415 0.741107
288 1 0.246184 0.3553 0.739824
331 2 0.497503 0.120237 0.657247
70 1 0.00680949 0.182272 0.515738
134 1 0.220258 0.13131 0.851446
163 1 0.0709183 0.155877 0.808443
66 1 0.103095 0.178476 0.955069
233 1 0.425368 0.344866 0.754167
28 1 0.171023 0.28213 0.856356
194 1 0.293581 0.0924295 0.987733
111 1 0.367414 0.0496194 0.845846
175 1 0.474567 0.1485 0.798622
39 1 0.379024 0.202958 0.902791
245 1 0.465626 0.0992189 0.9675
75 1 0.0560106 0.328438 0.941639
7 1 0.191779 0.382059 0.984934
122 1 0.329823 0.226803 0.763735
106 1 0.114771 0.423503 0.835795
258 1 0.0212107 0.280307 0.77534
144 1 0.484706 0.290126 0.96235
297 2 0.245619 0.486403 0.914157
249 1 0.477644 0.476698 0.826933
47 1 0.310162 0.374171 0.888485
69 1 0.0145147 0.479235 0.968309
57 1 0.244467 0.236128 0.987206
213 1 0.437965 0.428538 0.986372
298 2 0.469416 0.0120921 0.773494
79 1 0.0678025 0.662836 0.202219
136 1 0.227022 0.634135 0.126677
358 2 0.0902679 0.547702 0.162351
341 2 0.214061 0.74061 0.0309487
92 1 0.385623 0.845663 0.240915
340 2 0.35615 0.576692 0.11376
68 1 0.436943 0.680492 0.17016
252 1 0.451475 0.823557 0.0575701
211 1 0.349486 0.671725 0.025951
24 1 0.487521 0.540833 0.100704
90 1 0.0923375 0.675825 0.0151534
178 1 0.212792 0.868853 0.0335417
158 1 0.150962 0.766571 0.149703
146 1 0.298163 0.500068 0.0338703
166 1 0.102928 0.932257 0.129598
301 2 0.347173 0.89205 0.0708159
98 1 0.44101 0.958178 0.141239
131 1 0.29888 0.790698 0.129596
205 1 0.234532 0.906133 0.220862
287 1 0.278632 0.998847 0.106751
193 1 0.143205 0.525534 0.0358383
18 1 0.0617235 0.826296 0.0176175
97 1 0.37619 0.802394 0.39151
88 1 0.148461 0.562036 0.287629
120 1 0.266288 0.911826 0.362915
206 1 0.0914964 0.736238 0.344913
264 1 0.261876 0.754741 0.275087
145 1 0.00351158 0.56411 0.330999
176 1 0.414913 0.647583 0.417645
35 1 0.240625 0.663315 0.397986
326 2 0.398109 0.722923 0.297219
277 1 0.196059 0.799558 0.437067
44 1 0.0964528 0.912612 0.414758
101 1 0.0850211 0.61904 0.4571
149 1 0.308544 0.598964 0.271399
305 2 0.163545 0.977373 0.308377
73 1 0.451943 0.593668 0.28789
280 1 0.456987 0.926478 0.359616
117 1 0.0553674 0.789253 0.495833
29 1 0.0916712 0.855354 0.260007
22 1 0.209116 0.518118 0.444607
247 1 0.173766 0.699913 0.564318
335 2 0.182003 0.572096 0.565954
169 1 0.0728043 0.592057 0.631927
284 1 0.324133 0.766552 0.530689
77 1 0.482334 0.525649 0.684974
222 1 0.26493 0.91546 0.520229
1 1 0.241957 0.609519 0.665007
185 1 0.304258 0.601474 0.530557
319 2 0.310236 0.715012 0.654687
159 1 0.421448 0.681702 0.60099
360 2 0.361988 0.531038 0.627031
171 1 0.461936 0.533404 0.537328
336 2 0.016022 0.672115 0.722265
121 1 0.0768231 0.79579 0.661402
321 2 0.16746 0.828009 0.570699
42 1 0.227429 0.828278 0.686499
220 1 0.126728 0.937918 0.63028
142 1 0.363876 0.888506 0.658141
324 2 0.0381837 0.910226 0.530274
19 1 0.420065 0.899438 0.509812
192 1 0.421144 0.773951 0.728168
316 2 0.379696 1.00252 0.56647
234 1 0.376344 0.617768 0.741707
357 2 0.0714646 0.55906 0.749008
172 1 0.0784628 0.591834 0.876704
210 1 0.22255 0.634045 0.959566
327 2 0.452709 0.57595 0.983608
76 1 0.336136 0.803698 0.947406
275 1 0.269424 0.943974 0.910307
162 1 0.441365 0.688806 0.870792
218 1 0.359675 0.568148 0.896492
161 1 0.283636 0.705798 0.818156
89 1 0.274248 0.983299 0.744649