ITEM: TIMESTEP
0
ITEM: NUMBER OF ATOMS
360
ITEM: BOX BOUNDS pp pp pp
0.0000000000000000e+00 6.6943295008216896e+00
0.0000000000000000e+00 6.6943295008216896e+00
0.0000000000000000e+00 6.6943295008216896e+00
ITEM: ATOMS id type xs ys zs
130 1 0.188829 0.197296 0.151562
166 1 0.0758055 0.0938823 0.111706
51 1 0.219426 0.0708635 0.0213507
282 1 0.012694 0.225137 0.0828892
95 1 0.242514 0.058621 0.175505
348 2 0.123091 0.166945 0.0178107
354 2 0.0210675 0.165736 0.20454
69 1 0.231512 0.240931 0.00180736
358 2 0.294457 0.185663 0.0927837
106 1 0.420464 0.205189 0.148461
56 1 0.373932 0.0822274 0.0620195
310 2 0.380694 0.0886684 0.189172
313 2 0.495933 0.117116 0.077204
127 1 0.1296 0.486526 0.0331893
329 2 0.0403551 0.361189 0.157129
45 1 0.131288 0.454072 0.187951
181 1 0.159061 0.339834 0.0936647
81 1 0.0369357 0.278444 0.244347
75 1 0.430967 0.334676 0.0537736
117 1 0.284613 0.430978 0.0695059
312 2 0.257121 0.405173 0.214848
160 1 0.469925 0.488796 0.0301785
319 2 0.384844 0.406166 0.142011
173 1 0.310796 0.301999 0.13885
67 1 0.490632 0.445614 0.208172
137 1 0.114189 0.126936 0.273012
91 1 0.071842 0.114942 0.44643
136 1 0.199998 0.158604 0.390746
236 1 0.356055 0.140616 0.402981
326 2 0.412442 0.215391 0.283257
208 1 0.496673 0.145571 0.337982
248 1 0.453086 0.0289833 0.441687
266 1 0.305794 0.0252635 0.321941
41 1 0.293153 0.175657 0.268901
265 1 0.00986414 0.423955 0.298992
216 1 0.089395 0.270413 0.392247
213 1 0.146194 0.415877 0.355223
107 1 0.00666323 0.39246 0.483521
277 1 0.197889 0.283687 0.281848
303 2 0.135621 0.367841 0.473089
122 1 0.431593 0.274735 0.407396
78 1 0.268689 0.30368 0.417974
212 1 0.37562 0.42147 0.425203
290 2 0.460152 0.431537 0.332405
118 1 0.274524 0.483951 0.305631
93 1 0.36789 0.341857 0.268921
124 1 0.144927 0.209314 0.664607
274 1 0.186258 0.089192 0.547813
289 2 0.0675579 0.143509 0.585819
111 1 0.0721992 0.053929 0.676769
297 2 0.241878 0.127713 0.656719
44 1 0.167513 0.241246 0.516425
194 1 0.319444 0.0150636 0.629678
291 2 0.379353 0.0563295 0.527413
110 1 0.465613 0.184971 0.663168
112 1 0.314533 0.184366 0.564711
257 1 0.467483 0.0368929 0.611237
10 1 0.321632 0.205437 0.742009
199 1 0.477187 0.15797 0.509302
228 1 0.133102 0.490274 0.664608
33 1 0.099639 0.35636 0.588984
352 2 0.0697666 0.479168 0.549127
1 1 0.193783 0.459348 0.518087
104 1 0.258793 0.314125 0.630055
86 1 0.479632 0.462718 0.705242
295 2 0.395882 0.302933 0.683771
158 1 0.37148 0.453822 0.602813
344 2 0.262819 0.471084 0.670979
148 1 0.409461 0.30802 0.556463
318 2 0.29742 0.37554 0.52967
163 1 0.137228 0.0965441 0.888433
129 1 0.18111 0.245727 0.828451
37 1 0.00665643 0.171617 0.841258
50 1 0.0137253 0.0674174 0.967
324 2 0.112895 0.139634 0.76891
66 1 0.202136 0.0490159 0.752578
320 2 0.475668 0.0252469 0.791695
2 1 0.357539 0.0318413 0.773282
209 1 0.42788 0.0244219 0.927634
150 1 0.285626 0.131581 0.876842
251 1 0.452484 0.151755 0.831319
131 1 0.388376 0.204146 0.977132
360 2 0.0625677 0.451674 0.765465
17 1 0.20094 0.380953 0.75701
161 1 0.0655485 0.422512 0.878999
262 1 0.0730005 0.282863 0.952105
164 1 0.210506 0.385803 0.919256
350 2 0.0139732 0.493894 0.977285
52 1 0.0401663 0.321207 0.762523
357 2 0.309241 0.339089 0.992035
178 1 0.370445 0.43294 0.921863
18 1 0.325178 0.295517 0.87156
349 2 0.495507 0.250015 0.912868
171 1 0.477785 0.315123 0.794374
258 1 0.354598 0.404999 0.758064
43 1 0.085655 0.694681 0.179823
353 2 0.0828328 0.574369 0.140153
210 1 0.16617 0.64636 0.0546683
193 1 0.0153911 0.623672 0.0234011
343 2 0.236817 0.547747 0.0972413
87 1 0.204741 0.594882 0.209633
211 1 0.318968 0.650478 0.113062
88 1 0.462546 0.636616 0.121033
340 2 0.359882 0.556822 0.0424844
227 1 0.371228 0.52468 0.16542
292 2 0.422833 0.733982 0.0219476
336 2 0.482154 0.565956 0.239555
58 1 0.233065 0.899148 0.215474
333 2 0.156456 0.972641 0.123158
218 1 0.219377 0.776238 0.114864
29 1 0.0995943 0.8599 0.128096
73 1 0.0954544 0.969341 0.234336
132 1 0.271626 0.939027 0.0739907
108 1 0.397134 0.959934 0.156124
76 1 0.373862 0.812955 0.12007
325 2 0.281122 0.835259 0.00739797
13 1 0.493438 0.754113 0.198071
174 1 0.108534 0.683037 0.339312
14 1 0.0626498 0.526601 0.42007
15 1 0.174219 0.610682 0.471957
342 2 0.135889 0.550574 0.309048
139 1 0.0716363 0.734361 0.486628
96 1 0.0218441 0.577002 0.256572
206 1 0.254502 0.630064 0.351966
92 1 0.418565 0.557639 0.358997
100 1 0.384347 0.666668 0.251919
334 2 0.360835 0.649394 0.421303
3 1 0.312234 0.550293 0.466913
24 1 0.206203 0.75762 0.416034
252 1 0.111107 0.831444 0.303685
304 2 0.0739694 0.869335 0.411228
128 1 0.162221 0.998852 0.372246
120 1 0.175426 0.878425 0.492728
284 1 0.253012 0.750319 0.268157
19 1 0.371245 0.781486 0.400446
335 2 0.293133 0.848762 0.493879
97 1 0.374742 0.849784 0.261656
142 1 0.274509 0.890021 0.36253
321 2 0.487313 0.808962 0.454007
345 2 0.404962 0.903557 0.386517
202 1 0.45537 0.986421 0.302146
89 1 0.28132 0.989209 0.474614
276 1 0.0651323 0.614295 0.591178
231 1 0.00343473 0.730833 0.695871
172 1 0.179193 0.749685 0.609647
35 1 0.240311 0.58533 0.605845
185 1 0.180479 0.629724 0.741952
26 1 0.022044 0.574405 0.731395
195 1 0.487156 0.637308 0.659403
309 2 0.391379 0.595239 0.570295
311 2 0.280898 0.698988 0.677527
101 1 0.294715 0.711141 0.517554
5 1 0.454587 0.694806 0.502426
28 1 0.387936 0.749523 0.63572
125 1 0.370396 0.566007 0.709673
85 1 0.488775 0.536488 0.502918
359 2 0.398568 0.68093 0.746008
222 1 0.0728418 0.984093 0.523379
316 2 0.202861 0.966887 0.575596
84 1 0.129139 0.917552 0.672541
115 1 0.0226269 0.84138 0.572027
21 1 0.402028 0.908001 0.677138
267 1 0.49693 0.77602 0.748341
90 1 0.266794 0.872813 0.630257
280 1 0.406769 0.90535 0.523121
168 1 0.0565442 0.704374 0.847958
149 1 0.12373 0.567681 0.876839
300 2 0.192671 0.694452 0.890801
30 1 0.248716 0.545687 0.962931
269 1 0.301745 0.644233 0.838738
159 1 0.485207 0.597634 0.81012
256 1 0.256074 0.513978 0.795286
162 1 0.40813 0.59415 0.930569
287 1 0.439089 0.728445 0.874592
98 1 0.301876 0.725243 0.968371
197 1 0.128096 0.957579 0.998093
105 1 0.0118518 0.857839 0.783058
72 1 0.220681 0.830117 0.894558
298 2 0.0897406 0.823774 0.884387
241 1 0.137175 0.941105 0.847879
275 1 0.156902 0.786045 0.765042
238 1 0.110128 0.784416 0.99533
47 1 0.331689 0.790761 0.778993
16 1 0.440508 0.904575 0.829821
134 1 0.282378 0.969869 0.9149
31 1 0.39847 0.87147 0.973907
341 2 0.27006 0.920827 0.758018
154 1 0.636916 0.11639 0.0874078
119 1 0.556857 0.204656 0.204077
157 1 0.55318 0.237743 0.0500201
144 1 0.52117 0.0654639 0.184683
170 1 0.758279 0.183952 0.16973
253 1 0.898296 0.217982 0.213231
205 1 0.899115 0.0928473 0.0979653
239 1 0.811756 0.0448458 0.234546
80 1 0.9714 0.0515782 0.22412
305 2 0.510447 0.319491 0.145565
155 1 0.698393 0.460553 0.00829157
4 1 0.590853 0.389479 0.0865953
82 1 0.70264 0.293244 0.0449245
40 1 0.66497 0.316297 0.202536
57 1 0.644855 0.459453 0.235363
7 1 0.995215 0.490095 0.120036
302 2 0.809341 0.297256 0.188716
237 1 0.78908 0.417863 0.118294
61 1 0.917403 0.373184 0.167959
55 1 0.864851 0.261484 0.0646955
255 1 0.961185 0.381985 0.00819373
272 1 0.714853 0.159425 0.400012
281 1 0.588188 0.235135 0.438715
74 1 0.602337 0.0792099 0.478735
355 2 0.741045 0.0263959 0.351395
141 1 0.668589 0.113968 0.269111
38 1 0.859005 0.0692181 0.41481
65 1 0.851722 0.20511 0.46233
327 2 0.828432 0.158341 0.31569
70 1 0.970496 0.152119 0.343663
314 2 0.6548 0.255857 0.31726
223 1 0.528571 0.393149 0.452356
165 1 0.532294 0.321243 0.293429
219 1 0.658352 0.380779 0.377785
189 1 0.822437 0.422243 0.273561
109 1 0.78788 0.273598 0.322377
156 1 0.808692 0.386835 0.430323
230 1 0.928964 0.295797 0.365318
36 1 0.728083 0.144494 0.715259
140 1 0.62432 0.169323 0.595583
153 1 0.574096 0.0812399 0.716711
245 1 0.59034 0.230816 0.749001
188 1 0.663796 0.000285457 0.608073
126 1 0.766589 0.107357 0.54758
39 1 0.851838 0.0519895 0.699536
22 1 0.948049 0.0941182 0.570938
270 1 0.820985 0.225811 0.619316
225 1 0.997564 0.233914 0.525679
198 1 0.99968 0.194085 0.687408
77 1 0.714882 0.278039 0.510267
315 2 0.683909 0.26168 0.653194
143 1 0.553226 0.306175 0.599824
46 1 0.627538 0.392738 0.708532
347 2 0.516825 0.432027 0.589951
259 1 0.65934 0.426357 0.52538
48 1 0.877481 0.351617 0.561699
116 1 0.888825 0.330468 0.725241
296 2 0.860799 0.44108 0.659363
123 1 0.989196 0.446301 0.652004
351 2 0.9772 0.326766 0.63744
64 1 0.753983 0.375992 0.640763
233 1 0.773873 0.497111 0.735994
114 1 0.698284 0.140462 0.85768
307 2 0.67217 0.182685 0.985702
331 2 0.580316 0.11221 0.832028
260 1 0.533909 0.125055 0.94873
332 2 0.617171 0.039176 0.976865
184 1 0.991151 0.019928 0.807267
71 1 0.783395 0.242212 0.916506
138 1 0.866551 0.192973 0.782617
288 1 0.839064 0.0659691 0.866465
180 1 0.916606 0.173526 0.958801
250 1 0.775884 0.119969 0.99935
263 1 0.628275 0.268722 0.89647
94 1 0.673181 0.415208 0.867265
169 1 0.533753 0.372989 0.940484
323 2 0.542202 0.439806 0.819445
9 1 0.814462 0.379466 0.967771
330 2 0.900921 0.472624 0.915385
294 2 0.817172 0.409416 0.833347
221 1 0.924384 0.30713 0.873327
49 1 0.919886 0.47657 0.793679
25 1 0.750195 0.303867 0.779229
68 1 0.600337 0.544526 0.101537
62 1 0.622127 0.705546 0.106475
278 1 0.729941 0.6327 0.0129372
201 1 0.599695 0.610629 0.23685
135 1 0.754908 0.569724 0.170368
99 1 0.91372 0.629486 0.135778
244 1 0.776987 0.716023 0.176941
356 2 0.867204 0.502415 0.15498
11 1 0.854175 0.512835 0.0250093
346 2 0.895639 0.649501 0.0135167
34 1 0.574195 0.91254 0.162995
261 1 0.520964 0.995286 0.0434226
186 1 0.707668 0.845474 0.119737
27 1 0.511611 0.819636 0.0613026
339 2 0.637735 0.99959 0.206999
271 1 0.863623 0.900156 0.14478
200 1 0.756339 0.991261 0.09675
224 1 0.819377 0.769319 0.0388239
308 2 0.9034 0.853333 0.02324
338 2 0.756513 0.891423 0.00137114
79 1 0.971286 0.779805 0.108519
8 1 0.990445 0.948803 0.0949242
176 1 0.674986 0.669389 0.351881
283 1 0.728066 0.518166 0.368856
337 2 0.727969 0.73596 0.446037
151 1 0.649807 0.575405 0.488063
113 1 0.601872 0.746043 0.460776
167 1 0.563044 0.504975 0.352639
235 1 0.505301 0.682002 0.360045
121 1 0.903738 0.506586 0.394686
83 1 0.835805 0.603526 0.286307
242 1 0.966471 0.649144 0.39596
63 1 0.825383 0.658356 0.467128
232 1 0.946124 0.725858 0.258011
204 1 0.623199 0.980446 0.327025
215 1 0.688407 0.846152 0.386467
229 1 0.5321 0.845092 0.3313
23 1 0.556852 0.917965 0.469247
32 1 0.732768 0.976866 0.470386
279 1 0.734708 0.914426 0.252774
54 1 0.64182 0.768506 0.251647
196 1 0.81537 0.815519 0.486228
152 1 0.815576 0.759151 0.345053
59 1 0.957584 0.819476 0.410944
254 1 0.84366 0.929058 0.355829
286 1 0.971628 0.887512 0.253201
182 1 0.99477 0.985009 0.372704
317 2 0.847807 0.838596 0.250644
192 1 0.59997 0.522528 0.635911
301 2 0.578918 0.665143 0.571998
207 1 0.632256 0.688237 0.686582
306 2 0.727121 0.580964 0.626122
187 1 0.72813 0.713528 0.573253
191 1 0.947737 0.532308 0.538307
147 1 0.869086 0.574434 0.65353
102 1 0.933731 0.695157 0.566344
60 1 0.800896 0.501479 0.532701
6 1 0.77605 0.671056 0.728326
133 1 0.693125 0.830845 0.690157
190 1 0.671373 0.854177 0.551814
42 1 0.538178 0.798488 0.595785
328 2 0.542312 0.941862 0.585327
183 1 0.56189 0.915033 0.719094
273 1 0.859488 0.791658 0.659313
214 1 0.952124 0.945148 0.668666
220 1 0.910979 0.943123 0.51044
240 1 0.798029 0.922589 0.613041
247 1 0.613859 0.724144 0.828879
234 1 0.580758 0.523522 0.93314
322 2 0.655321 0.633169 0.904079
146 1 0.626618 0.552161 0.782526
243 1 0.541195 0.670479 0.970117
177 1 0.906026 0.738263 0.813865
217 1 0.785009 0.687734 0.883436
293 2 0.866531 0.594343 0.771827
203 1 0.921538 0.602637 0.893924
103 1 0.776388 0.529369 0.885979
53 1 0.578779 0.993407 0.857388
268 1 0.667652 0.767422 0.972876
175 1 0.53768 0.842341 0.912931
179 1 0.675387 0.867862 0.840608
20 1 0.721087 0.996518 0.92677
12 1 0.696465 0.999897 0.764409
264 1 0.633818 0.907385 0.998279
249 1 0.956203 0.752567 0.952484
285 1 0.82584 0.916643 0.773714
299 2 0.770006 0.802427 0.809962
246 1 0.859782 0.976804 0.999033
226 1 0.840286 0.849891 0.907967
145 1 0.987186 0.909976 0.935708
ITEM: TIMESTEP
100000
ITEM: NUMBER OF ATOMS
360
ITEM: BOX BOUNDS pp pp pp
0.0000000000000000e+00 6.6943295008216896e+00
0.0000000000000000e+00 6.6943295008216896e+00
0.0000000000000000e+00 6.6943295008216896e+00
ITEM: ATOMS id type xs ys zs
130 1 0.188693 0.0517526 0.0347812
137 1 0.0828955 0.192088 0.184407
45 1 0.130877 0.191553 0.0331261
333 2 0.029778 0.0465473 0.230673
144 1 0.226437 0.153164 0.148534
166 1 0.0254726 0.0727689 0.0852502
108 1 0.385417 0.123062 0.157022
326 2 0.314843 0.0639795 0.0655264
256 1 0.30396 0.193006 0.0177719
4 1 0.480797 0.473654 0.14708
332 2 0.41834 0.133555 0.019807
161 1 0.339431 0.414182 0.0809299
329 2 0.0779432 0.472925 0.140776
227 1 0.205148 0.459287 0.13192
117 1 0.0835679 0.324758 0.110215
93 1 0.223066 0.322614 0.0521675
339 2 0.449991 0.344424 0.136897
17 1 0.338226 0.270406 0.1801
212 1 0.357265 0.406722 0.245384
110 1 0.439555 0.25537 0.0509171
173 1 0.196438 0.318311 0.21607
164 1 0.480659 0.402414 0.0188243
157 1 0.481282 0.223742 0.213725
357 2 0.295908 0.0961976 0.238449
71 1 0.110349 0.453731 0.0082147
136 1 0.0266598 0.1177 0.341844
124 1 0.158864 0.161064 0.43412
65 1 0.0777506 0.0197937 0.441052
225 1 0.014116 0.258025 0.475703
95 1 0.0915022 0.258733 0.337505
305 2 0.4217 0.443314 0.352522
219 1 0.476775 0.502073 0.457461
208 1 0.2825 0.234492 0.490384
277 1 0.255146 0.208289 0.303141
202 1 0.275979 0.0802055 0.372717
106 1 0.411096 0.163444 0.335807
295 2 0.425491 0.203686 0.452176
223 1 0.322039 0.345154 0.382756
118 1 0.489341 0.319736 0.407515
3 1 0.164262 0.473065 0.421796
216 1 0.0889496 0.410553 0.289686
334 2 0.201393 0.342685 0.347676
129 1 0.164236 0.329796 0.478105
1 1 0.0212704 0.409241 0.459322
204 1 0.402381 0.0157537 0.282758
73 1 0.153849 0.0868054 0.275699
312 2 0.399166 0.293586 0.287232
198 1 0.067589 0.108231 0.565913
33 1 0.179101 0.183675 0.737399
303 2 0.196425 0.172235 0.568504
318 2 0.486144 0.325193 0.567944
360 2 0.251019 0.425797 0.517999
182 1 0.168662 0.0432975 0.65883
252 1 0.221311 0.0348979 0.511875
112 1 0.405638 0.228143 0.583331
291 2 0.409687 0.105309 0.640764
344 2 0.343516 0.233448 0.708069
236 1 0.288722 0.144859 0.641512
159 1 0.308558 0.460798 0.636042
148 1 0.385471 0.396859 0.517329
138 1 0.0406057 0.11108 0.724748
228 1 0.0993994 0.259068 0.624082
107 1 0.111093 0.443639 0.574992
104 1 0.41514 0.342237 0.681291
10 1 0.466435 0.475287 0.627295
123 1 0.253661 0.316997 0.625182
150 1 0.477551 0.00873006 0.725633
37 1 0.0262009 0.411988 0.711691
2 1 0.458736 0.163227 0.750087
15 1 0.194149 0.490613 0.719511
21 1 0.157366 0.352982 0.744767
143 1 0.37555 0.097183 0.511856
262 1 0.116868 0.203374 0.873825
50 1 0.0515854 0.0785416 0.929148
56 1 0.186492 0.0763971 0.837517
358 2 0.218616 0.150702 0.924064
131 1 0.322038 0.0693607 0.928129
298 2 0.428905 0.0754249 0.848074
251 1 0.440879 0.183103 0.903561
18 1 0.289847 0.218145 0.828694
258 1 0.342242 0.33142 0.948407
316 2 0.460735 0.44602 0.777488
86 1 0.446612 0.328751 0.835018
255 1 0.044158 0.316232 0.955962
203 1 0.0877888 0.435647 0.848665
181 1 0.194924 0.339052 0.905404
180 1 0.0249008 0.273972 0.763342
199 1 0.334152 0.0751683 0.761191
185 1 0.307044 0.371655 0.792521
125 1 0.380834 0.46293 0.915254
75 1 0.45874 0.0173063 0.992502
340 2 0.256969 0.439816 0.986048
87 1 0.155331 0.603737 0.0678485
319 2 0.227206 0.583092 0.1767
356 2 0.144259 0.742499 0.079608
96 1 0.149543 0.708423 0.208782
30 1 0.305146 0.552744 0.0181669
210 1 0.268268 0.688357 0.117716
343 2 0.389872 0.654603 0.0793465
162 1 0.463096 0.558004 0.0315578
67 1 0.354277 0.556499 0.163846
88 1 0.415306 0.707703 0.211591
350 2 0.127901 0.846108 0.224831
325 2 0.196814 0.930961 0.0474929
238 1 0.223505 0.840752 0.141818
79 1 0.0399124 0.824764 0.112775
29 1 0.114522 0.952524 0.158562
134 1 0.0640478 0.939023 0.0126582
31 1 0.381197 0.802805 0.0979016
279 1 0.442885 0.973589 0.145378
154 1 0.32813 0.932709 0.0162808
342 2 0.288807 0.770169 0.225912
328 2 0.468062 0.896679 0.0380577
61 1 0.0103828 0.682324 0.140354
14 1 0.113962 0.561614 0.226467
58 1 0.270589 0.989791 0.151643
206 1 0.150275 0.624675 0.364942
102 1 0.00401386 0.710452 0.438277
121 1 0.0191387 0.541946 0.383565
265 1 0.0113927 0.658756 0.287004
215 1 0.481095 0.93429 0.395232
201 1 0.450263 0.669674 0.431931
92 1 0.397231 0.571167 0.308283
304 2 0.371371 0.717952 0.323805
24 1 0.285563 0.656569 0.425786
174 1 0.268558 0.648085 0.272673
266 1 0.252525 0.917368 0.286577
218 1 0.104386 0.776793 0.32883
286 1 0.158183 0.869202 0.442123
242 1 0.0850617 0.934051 0.313131
23 1 0.317144 0.929718 0.431848
353 2 0.28673 0.811083 0.489016
284 1 0.256562 0.788026 0.356106
280 1 0.39858 0.806931 0.415701
213 1 0.150225 0.70881 0.497962
97 1 0.389386 0.860178 0.257935
336 2 0.491497 0.657499 0.295517
289 2 0.19239 0.980002 0.382373
44 1 0.320203 0.506717 0.42107
41 1 0.245556 0.499287 0.28257
101 1 0.16705 0.646275 0.641729
274 1 0.0241301 0.710376 0.63972
191 1 0.0538439 0.565839 0.716188
28 1 0.216459 0.54673 0.539125
78 1 0.0749931 0.582975 0.52912
194 1 0.418177 0.853628 0.71969
89 1 0.406791 0.656328 0.681525
300 2 0.291729 0.593125 0.649008
172 1 0.292412 0.702133 0.568602
85 1 0.373578 0.573317 0.546255
335 2 0.416002 0.701397 0.562029
142 1 0.375895 0.824797 0.580698
275 1 0.27104 0.779469 0.698097
352 2 0.173435 0.773469 0.614928
115 1 0.0615605 0.824547 0.550496
128 1 0.217528 0.888987 0.583711
241 1 0.109432 0.837073 0.708004
297 2 0.112192 0.960699 0.54773
66 1 0.0258331 0.955072 0.644656
345 2 0.422307 0.964578 0.519259
120 1 0.329833 0.978044 0.635438
98 1 0.194893 0.655664 0.926012
149 1 0.0660394 0.594044 0.897293
296 2 0.145443 0.566567 0.810324
231 1 0.100135 0.700097 0.767783
72 1 0.0493172 0.708993 0.993005
269 1 0.246238 0.643474 0.766564
267 1 0.383037 0.734206 0.819861
359 2 0.311779 0.591876 0.872464
192 1 0.447641 0.58891 0.863619
243 1 0.343838 0.693739 0.959933
309 2 0.488028 0.712934 0.939345
287 1 0.433467 0.833435 0.935349
132 1 0.183671 0.922471 0.915303
47 1 0.224272 0.787407 0.841743
197 1 0.103225 0.962668 0.784674
310 2 0.30448 0.868654 0.909575
163 1 0.255951 0.93029 0.772208
69 1 0.387706 0.953616 0.858072
341 2 0.491336 0.840889 0.831472
84 1 0.0862608 0.804975 0.882632
354 2 0.0138128 0.927124 0.897166
211 1 0.217525 0.805797 0.998073
19 1 0.355567 0.516683 0.76244
127 1 0.23337 0.5007 0.882738
264 1 0.660408 0.19098 0.145614
27 1 0.534714 0.117069 0.0847182
32 1 0.679393 0.0368308 0.11758
81 1 0.986232 0.303404 0.24165
253 1 0.971218 0.425323 0.0812708
80 1 0.868745 0.0894965 0.0755598
170 1 0.815278 0.23598 0.103207
327 2 0.781592 0.130803 0.166806
20 1 0.966482 0.232047 0.0556974
38 1 0.929132 0.131517 0.209625
308 2 0.740261 0.124943 0.0428767
205 1 0.867328 0.361683 0.1614
315 2 0.67136 0.00987801 0.23648
82 1 0.654589 0.435048 0.209543
200 1 0.581952 0.327208 0.108569
314 2 0.722457 0.312071 0.149667
169 1 0.740639 0.426347 0.0763893
70 1 0.80542 0.246694 0.244755
141 1 0.537048 0.0895929 0.237743
254 1 0.803792 0.0190379 0.227985
239 1 0.695567 0.130106 0.279402
119 1 0.56442 0.200808 0.358451
337 2 0.616502 0.0418115 0.365238
48 1 0.750094 0.244754 0.393388
140 1 0.664848 0.12423 0.456881
270 1 0.881823 0.331849 0.422712
77 1 0.810991 0.0818009 0.380028
122 1 0.915399 0.207355 0.348054
91 1 0.947307 0.107827 0.472204
259 1 0.741017 0.403175 0.477303
272 1 0.621571 0.396802 0.374554
347 2 0.639363 0.277515 0.428496
60 1 0.86923 0.481151 0.452015
165 1 0.501829 0.368513 0.269575
230 1 0.930007 0.436262 0.309257
283 1 0.77866 0.392661 0.314668
74 1 0.50145 0.0759152 0.415579
109 1 0.637417 0.294035 0.264419
290 2 0.987958 0.321641 0.369794
331 2 0.661697 0.0912461 0.57005
263 1 0.612281 0.110145 0.710065
285 1 0.813474 0.00222896 0.722588
245 1 0.553524 0.237731 0.656539
64 1 0.70837 0.265263 0.72097
39 1 0.75966 0.130204 0.656449
288 1 0.900066 0.0672464 0.615047
52 1 0.952112 0.212351 0.634108
311 2 0.856889 0.485168 0.701456
26 1 0.958012 0.493977 0.605232
90 1 0.558348 0.379784 0.729754
233 1 0.700323 0.289889 0.557851
146 1 0.762898 0.400254 0.669417
167 1 0.587924 0.371838 0.519859
240 1 0.773863 0.0275487 0.530706
294 2 0.828403 0.247595 0.653043
207 1 0.628294 0.484608 0.621159
49 1 0.87216 0.359171 0.570725
221 1 0.891572 0.335233 0.710865
158 1 0.530059 0.0827888 0.584572
351 2 0.992053 0.334035 0.598918
36 1 0.828237 0.20015 0.525459
156 1 0.537514 0.211 0.500775
114 1 0.721273 0.114405 0.824788
323 2 0.680365 0.244658 0.867263
209 1 0.568238 0.0760835 0.851256
302 2 0.779644 0.399666 0.938115
171 1 0.56912 0.232099 0.816379
313 2 0.591131 0.032427 0.994404
179 1 0.647542 0.157669 0.973803
338 2 0.860216 0.0906177 0.879643
184 1 0.941518 0.0247371 0.807623
282 1 0.951907 0.198114 0.883125
271 1 0.817664 0.176586 0.95877
320 2 0.622953 0.403577 0.987676
247 1 0.861138 0.488268 0.965375
116 1 0.876174 0.167517 0.751587
25 1 0.678538 0.368407 0.837147
260 1 0.560893 0.291295 0.948585
9 1 0.941335 0.373909 0.851668
103 1 0.816578 0.452073 0.814549
246 1 0.808224 0.281365 0.842022
330 2 1.00107 0.441324 0.938622
46 1 0.550528 0.462843 0.897043
55 1 0.88728 0.333885 0.985754
175 1 0.722826 0.02085 0.967834
250 1 0.715347 0.291452 0.998716
307 2 0.629766 0.476322 0.786751
278 1 0.524566 0.609415 0.18751
135 1 0.679787 0.577977 0.192938
306 2 0.645322 0.652148 0.0652574
189 1 0.972174 0.538886 0.189941
217 1 0.742533 0.719277 0.125063
224 1 0.808431 0.95741 0.0804129
346 2 0.943322 0.916312 0.0603874
155 1 0.78398 0.576639 0.0672728
237 1 0.877302 0.683521 0.199967
13 1 0.518538 0.704471 0.0669304
99 1 0.87747 0.81516 0.1152
232 1 0.955647 0.95589 0.186651
349 2 0.88838 0.516396 0.0988475
160 1 0.615609 0.5173 0.0688966
11 1 0.690002 0.897414 0.169349
244 1 0.59072 0.914273 0.0291743
322 2 0.571208 0.978872 0.151702
40 1 0.80774 0.50704 0.206073
292 2 0.640619 0.799297 0.0994734
62 1 0.625582 0.734459 0.215845
261 1 0.527198 0.83965 0.159555
193 1 0.897716 0.693113 0.0262155
7 1 0.98465 0.563144 0.0301802
139 1 0.979852 0.803656 0.246339
249 1 0.762647 0.834083 0.00478529
68 1 0.595256 0.656146 0.373884
57 1 0.558245 0.516382 0.296411
176 1 0.708827 0.524915 0.341513
229 1 0.825973 0.85975 0.255446
59 1 1.00036 0.857086 0.405147
126 1 0.837541 0.895356 0.413539
235 1 0.765429 0.624744 0.450568
83 1 0.880248 0.579229 0.320764
152 1 0.75402 0.671627 0.297896
222 1 0.869954 0.743921 0.360439
153 1 0.6057 0.973347 0.495709
34 1 0.564112 0.943456 0.279289
317 2 0.610823 0.894042 0.403547
196 1 0.709843 0.785399 0.386257
54 1 0.521076 0.790335 0.315362
281 1 0.712833 0.961624 0.35412
355 2 0.676101 0.854734 0.288334
257 1 0.538789 0.823459 0.483269
195 1 0.630842 0.542349 0.476057
220 1 0.933851 0.996364 0.344704
133 1 0.640527 0.693944 0.686487
293 2 0.667782 0.603013 0.574809
35 1 0.530665 0.619701 0.565472
276 1 0.891822 0.760803 0.680778
63 1 0.915026 0.625393 0.540242
177 1 0.733602 0.558813 0.709759
151 1 0.887284 0.604572 0.709954
6 1 0.78107 0.531476 0.56425
187 1 0.769594 0.703824 0.591938
299 2 0.978738 0.840919 0.647374
43 1 0.958265 0.964351 0.513687
188 1 0.711405 0.872781 0.514253
12 1 0.7262 0.840944 0.687507
321 2 0.628118 0.822543 0.600273
22 1 0.894367 0.781532 0.516704
248 1 0.509787 0.921851 0.602778
53 1 0.673986 0.976748 0.655861
111 1 0.864693 0.897666 0.618479
42 1 0.580534 0.862208 0.733901
113 1 0.639048 0.718748 0.522307
100 1 0.510359 0.757697 0.629813
5 1 0.542475 0.565028 0.743115
234 1 0.664117 0.625938 0.822515
268 1 0.725467 0.688501 0.960558
178 1 0.577061 0.620669 0.951482
147 1 0.951593 0.522966 0.817353
183 1 0.527475 0.725 0.788936
168 1 0.826072 0.609825 0.86223
348 2 0.932313 0.597868 0.921967
105 1 0.958289 0.700071 0.828427
324 2 0.82987 0.822078 0.780232
226 1 0.68969 0.796761 0.828966
190 1 0.691677 0.961902 0.807717
16 1 0.556653 0.927783 0.883876
76 1 0.593417 0.787998 0.952847
301 2 0.684924 0.898311 0.921719
214 1 0.839354 0.765522 0.894535
186 1 0.828031 0.918255 0.860579
51 1 0.958122 0.836927 0.954969
145 1 0.9698 0.849132 0.791221
8 1 0.91098 1.00058 0.96655
273 1 0.775628 0.703784 0.755747
94 1 0.706659 0.513084 0.922602
ITEM: TIMESTEP
200000
ITEM: NUMBER OF ATOMS
360
ITEM: BOX BOUNDS pp pp pp
0.0000000000000000e+00 6.6943295008216896e+00
0.0000000000000000e+00 6.6943295008216896e+00
0.0000000000000000e+00 6.6943295008216896e+00
ITEM: ATOMS id type xs ys zs
144 1 0.225997 0.0823407 0.128742
43 1 0.0887388 0.0230763 0.225706
8 1 0.0896998 0.110697 0.0346329
277 1 0.11939 0.189509 0.17011
26 1 -0.00715904 0.373579 0.0881284
256 1 0.386313 0.086218 0.0968109
332 2 0.450303 0.233761 0.173193
30 1 0.127765 0.448669 0.0240028
161 1 0.25301 0.253279 0.125596
181 1 0.265202 0.380397 0.0459132
166 1 0.0261661 0.309304 0.227065
92 1 0.286461 0.410532 0.221876
340 2 0.352079 0.269637 0.0228006
93 1 0.13112 0.278415 0.0323403
173 1 0.143198 0.386866 0.164228
304 2 0.430176 0.487091 0.248948
266 1 0.381046 0.00291376 0.241498
343 2 0.35565 0.464711 0.10328
110 1 0.388201 0.333144 0.120942
58 1 0.313777 0.149427 0.219616
75 1 0.4976 0.10419 0.211604
67 1 0.414605 0.426244 -0.00951599
77 1 0.108387 0.172618 0.341426
65 1 0.210762 0.066474 0.309825
208 1 0.251666 0.216766 0.425923
198 1 0.233967 0.0652708 0.455598
227 1 0.0592163 0.451667 0.281186
305 2 0.475115 0.44514 0.439883
295 2 0.315077 0.125383 0.343501
223 1 0.390689 0.123101 0.466445
319 2 0.357991 0.286159 0.407137
204 1 0.442854 0.18067 0.342787
118 1 0.376555 0.420506 0.350067
165 1 0.481418 0.230164 0.496139
119 1 0.471437 0.0248695 0.362985
216 1 0.0878931 0.331365 0.377602
1 1 0.131178 0.4883 0.434346
136 1 0.0988182 0.0178043 0.405197
17 1 0.207604 0.288772 0.292201
106 1 0.376504 0.29609 0.266719
212 1 0.244417 0.365158 0.409277
334 2 0.191307 0.429043 0.301218
124 1 0.114814 0.151056 0.499941
236 1 0.178496 0.140197 0.725783
288 1 0.175848 0.0516552 0.604515
228 1 0.0279184 0.11015 0.630211
52 1 0.0081676 0.258524 0.604084
159 1 0.244866 0.422525 0.552287
129 1 0.135973 0.313441 0.530168
290 2 0.279339 0.0582894 0.68785
112 1 0.344258 0.217473 0.71921
156 1 0.435101 0.111125 0.633044
202 1 0.271138 0.168293 0.56799
323 2 0.382461 0.232243 0.567473
289 2 0.258501 0.2942 0.537108
291 2 0.124554 0.203961 0.615241
225 1 0.0922087 0.386365 0.663909
252 1 0.227216 0.306709 0.661844
303 2 0.0952115 0.467542 0.560857
104 1 0.267586 0.453574 0.720218
123 1 0.37545 0.343467 0.638896
95 1 0.0165791 0.391249 0.510321
148 1 0.387279 0.37019 0.494062
282 1 0.0983199 0.196111 0.893776
131 1 0.0538325 0.0865605 0.789183
154 1 0.179548 0.0457374 0.916077
344 2 0.346457 0.344367 0.771013
358 2 0.455388 0.397126 0.876326
2 1 0.297365 0.107466 0.819593
258 1 0.413506 0.126513 0.932962
357 2 0.31403 0.0682849 0.991189
298 2 0.363476 0.215481 0.841135
333 2 0.114596 0.491239 0.9078
64 1 0.491956 0.159579 0.782256
309 2 0.387902 0.0191559 0.870416
171 1 0.424346 0.453787 0.767774
245 1 0.466195 0.308964 0.7854
360 2 0.215114 0.297696 0.941035
117 1 0.122245 0.358383 0.887576
203 1 0.128157 0.481719 0.780105
199 1 0.229701 0.269827 0.813436
45 1 0.247685 0.170787 0.963652
260 1 0.473873 0.273212 0.942912
329 2 0.168307 0.3632 0.760492
21 1 0.239997 0.446762 0.903952
164 1 0.327891 0.321709 0.898842
262 1 0.0727535 0.264388 0.76186
87 1 0.137346 0.682881 0.157661
359 2 0.157921 0.594627 0.0667601
79 1 0.207563 0.538149 0.178005
244 1 0.47599 0.952439 0.131033
210 1 0.0429869 0.514199 0.132847
355 2 0.349831 0.969808 0.128439
130 1 0.255545 0.965505 0.0397629
96 1 0.30259 0.708585 0.0962259
4 1 0.359386 0.577964 0.184639
88 1 0.275551 0.549323 0.0357049
200 1 0.473431 0.500162 0.129575
278 1 0.460024 0.710086 0.104177
72 1 0.0289998 0.80915 0.0135834
249 1 0.116915 0.967758 0.0808114
139 1 0.173897 0.831818 0.0971175
242 1 0.228828 0.955826 0.190602
350 2 0.10665 0.896622 0.185187
61 1 0.00173415 0.784524 0.181776
325 2 0.0216346 0.94501 0.00216334
287 1 0.331849 0.846793 0.142759
238 1 0.440525 0.577485 0.0107169
353 2 0.217508 0.811358 0.228614
279 1 0.401739 0.715646 0.249554
241 1 0.0730163 0.690122 0.435829
102 1 0.130194 0.603954 0.320679
142 1 0.48127 0.856842 0.253117
41 1 0.273601 0.537398 0.315223
206 1 0.225359 0.747799 0.403238
351 2 0.298575 0.630601 0.388539
54 1 0.426866 0.596721 0.34434
218 1 0.391026 0.738144 0.406152
59 1 0.319799 0.853879 0.297072
24 1 0.342749 0.513646 0.463073
73 1 0.330676 0.985754 0.380924
230 1 0.105168 0.769352 0.300184
115 1 0.18271 0.89319 0.345253
213 1 0.0644893 0.842287 0.442343
286 1 0.323308 0.863319 0.47961
335 2 0.430126 0.884418 0.373364
22 1 0.0363689 0.904785 0.297098
78 1 0.213981 0.609956 0.477758
174 1 0.251805 0.681644 0.262829
23 1 0.454063 0.97446 0.506912
284 1 0.189835 0.935682 0.502469
15 1 0.180195 0.535844 0.631034
274 1 0.0867428 0.673657 0.606481
194 1 0.189589 0.752173 0.690656
101 1 0.17335 0.794951 0.534617
3 1 0.0365241 0.526197 0.67403
107 1 0.0190892 0.563186 0.521567
300 2 0.227698 0.654165 0.618438
85 1 0.340869 0.556627 0.629686
293 2 0.434743 0.66186 0.618892
275 1 0.353797 0.728809 0.700437
172 1 0.489649 0.770606 0.583617
44 1 0.322515 0.705497 0.543609
120 1 0.388545 0.872802 0.631269
33 1 0.0329317 0.955213 0.719559
299 2 0.0529642 0.835815 0.593091
197 1 0.154956 0.904602 0.645775
352 2 0.278752 0.805932 0.605461
19 1 0.429503 0.602571 0.751627
143 1 0.379402 1.00001 0.738818
182 1 0.318776 0.992975 0.576942
66 1 0.0443979 0.969154 0.556773
322 2 0.456214 0.983801 0.636997
128 1 0.282598 0.87732 0.736209
231 1 0.0327704 0.791542 0.715787
219 1 0.438844 0.61913 0.504342
10 1 0.458972 0.471155 0.588978
127 1 0.107839 0.638394 0.756171
71 1 0.206481 0.60811 0.896424
84 1 0.0904545 0.727873 0.876464
31 1 0.164476 0.717864 1.00593
98 1 0.0620172 0.587222 0.978831
29 1 0.285781 0.819764 0.989474
349 2 0.349515 0.672422 0.827058
162 1 0.322447 0.677221 0.95645
125 1 0.3576 0.530754 0.884221
326 2 0.468731 0.900235 0.877227
94 1 0.468616 0.67006 0.89263
150 1 0.29284 0.933138 0.875182
267 1 0.24595 0.747924 0.845808
108 1 0.444464 0.798782 0.984701
354 2 0.082438 0.977485 0.844692
132 1 0.13432 0.864359 0.80204
211 1 0.12753 0.901853 0.954658
243 1 0.379715 0.801544 0.854247
163 1 0.203915 1.00144 0.770068