ITEM: TIMESTEP
0
ITEM: NUMBER OF ATOMS
360
ITEM: BOX BOUNDS pp pp pp
0.0000000000000000e+00 6.6943295008216896e+00
0.0000000000000000e+00 6.6943295008216896e+00
0.0000000000000000e+00 6.6943295008216896e+00
ITEM: ATOMS id type xs ys zs
59 1 0.20326 0.157324 0.167248
304 2 0.0730614 0.163537 0.154673
67 1 0.2223 0.187765 0.0120859
184 1 0.094284 0.117275 0.0260265
19 1 0.234791 0.0402883 0.0566026
261 1 0.344999 0.147602 0.0896628
73 1 0.467701 0.080771 0.13337
183 1 0.460673 0.233598 0.0297609
337 2 0.0640272 0.25178 0.0127065
271 1 0.206841 0.476363 0.221323
311 2 0.238727 0.278689 0.109629
188 1 0.223146 0.490163 0.0537848
28 1 0.0581986 0.444575 0.102523
115 1 0.227732 0.300091 0.224398
105 1 0.10557 0.274718 0.13996
135 1 0.184279 0.348443 0.0171401
316 2 0.218229 0.395232 0.137478
55 1 0.369303 0.263674 0.193214
214 1 0.366797 0.347858 0.0695676
134 1 0.498764 0.427823 0.225197
306 2 0.489283 0.317899 0.162057
282 1 0.349235 0.436176 0.208139
255 1 0.106809 0.140319 0.408702
60 1 0.116499 0.0546246 0.273306
326 2 0.00392981 0.112286 0.307832
111 1 0.231594 0.032428 0.39586
283 1 0.10419 0.210271 0.281569
147 1 0.00911974 0.0167143 0.442079
24 1 0.260934 0.180163 0.392931
259 1 0.40662 0.205171 0.376541
96 1 0.308502 0.127531 0.260627
163 1 0.389494 0.038767 0.373424
334 2 0.454149 0.0461112 0.265001
323 2 0.439707 0.170923 0.498442
132 1 0.022801 0.283542 0.469297
169 1 0.0941427 0.456921 0.431147
286 1 0.16947 0.338663 0.377426
335 2 0.216952 0.394198 0.481447
1 1 0.0789654 0.396216 0.254331
45 1 0.337391 0.347273 0.45735
301 2 0.418184 0.466731 0.359524
182 1 0.272182 0.470783 0.369034
12 1 0.426592 0.348368 0.324829
305 2 0.292599 0.308475 0.344683
61 1 0.198204 0.121613 0.629909
178 1 0.0583661 0.139488 0.567129
79 1 0.143054 0.0201822 0.743768
233 1 0.140805 0.0197468 0.50494
106 1 0.173885 0.248026 0.507098
348 2 0.103962 0.0150358 0.621852
350 2 0.00581733 0.245142 0.598815
201 1 0.0256417 0.109037 0.709793
338 2 0.254749 0.219797 0.690893
9 1 0.367249 0.103998 0.658829
164 1 0.33091 0.224117 0.558856
359 2 0.423354 0.198713 0.719912
123 1 0.439489 0.0422457 0.549859
103 1 0.303057 0.0871647 0.512199
319 2 0.259932 0.0777153 0.720007
34 1 0.244119 0.333898 0.74269
117 1 0.125482 0.26739 0.65081
27 1 0.116928 0.399495 0.572714
151 1 0.128406 0.429756 0.720457
213 1 0.236467 0.489891 0.542088
227 1 0.393358 0.314092 0.682899
175 1 0.39387 0.433715 0.570827
3 1 0.463366 0.303769 0.526198
36 1 0.25849 0.360844 0.606014
205 1 0.181584 0.0440537 0.895353
268 1 0.114235 0.194629 0.902386
204 1 0.0196753 0.0894699 0.877853
253 1 0.161785 0.167396 0.775677
357 2 0.231619 0.155458 0.869822
297 2 0.0244857 0.195751 0.814024
288 1 0.337586 0.0912536 0.914215
198 1 0.316027 0.187223 0.792064
238 1 0.361048 0.235756 0.935654
263 1 0.437838 0.0905949 0.794265
145 1 0.484659 0.216456 0.847935
33 1 0.473998 0.0846768 0.963805
92 1 0.238711 0.295296 0.888751
266 1 0.04901 0.364917 0.942313
197 1 0.179455 0.438882 0.870253
258 1 0.100088 0.311479 0.82024
114 1 0.32752 0.438631 0.855589
199 1 0.379416 0.488907 0.986355
317 2 0.376262 0.314533 0.820751
87 1 0.448253 0.361974 0.925221
215 1 0.470203 0.415209 0.781598
293 2 0.277695 0.392747 0.966846
189 1 0.229185 0.628177 0.215642
82 1 0.0666836 0.728137 0.0983407
112 1 0.100296 0.736988 0.241271
324 2 0.0648314 0.576229 0.14128
270 1 0.178372 0.626372 0.0567255
284 1 0.344205 0.561735 0.124634
299 2 0.306435 0.619439 0.00877931
206 1 0.305048 0.734533 0.0721856
64 1 0.467552 0.683618 0.0651201
267 1 0.493453 0.576258 0.213718
17 1 0.370028 0.7047 0.209763
149 1 0.494131 0.506456 0.0683896
344 2 0.186564 0.76328 0.0921604
331 2 0.102065 0.875997 0.0824943
65 1 0.240407 0.777617 0.201796
41 1 0.149854 0.893675 0.235273
162 1 0.228421 0.887617 0.0973093
23 1 0.0687051 0.995699 0.110667
346 2 0.0213351 0.922258 0.186391
345 2 0.193969 0.995282 0.172888
140 1 0.321574 0.982021 0.189913
251 1 0.467263 0.836245 0.0102268
127 1 0.383375 0.980389 0.0269422
309 2 0.45295 0.946849 0.129605
99 1 0.377203 0.846813 0.136997
90 1 0.0876074 0.719019 0.40584
125 1 0.15905 0.600023 0.412108
81 1 0.0908892 0.560421 0.267074
146 1 0.00504369 0.589147 0.437439
168 1 0.256167 0.69672 0.338351
360 2 0.258318 0.593933 0.479035
20 1 0.339341 0.682178 0.467105
128 1 0.354461 0.565091 0.298773
95 1 0.394833 0.534499 0.456359
84 1 0.447726 0.67185 0.338841
89 1 0.483129 0.739964 0.492803
328 2 0.0312766 0.83603 0.346131
302 2 0.201818 0.812001 0.325001
181 1 0.133083 0.908499 0.387667
219 1 0.218714 0.797555 0.446452
303 2 0.102357 0.827572 0.480154
93 1 0.448154 0.912153 0.261066
180 1 0.289731 0.917021 0.315566
129 1 0.386157 0.838992 0.403319
109 1 0.302552 0.924502 0.489722
351 2 0.0137946 0.672494 0.682093
118 1 0.137529 0.605506 0.684052
51 1 0.0239063 0.70469 0.557393
104 1 0.0930784 0.555736 0.554655
310 2 0.228802 0.705563 0.644481
25 1 0.171321 0.691118 0.537563
7 1 0.308708 0.62409 0.604851
246 1 0.426198 0.704977 0.646157
75 1 0.417582 0.523074 0.688454
236 1 0.269518 0.503731 0.735051
307 2 0.198139 0.815433 0.568881
196 1 0.115025 0.758019 0.65751
339 2 0.096959 0.87256 0.704824
14 1 0.102261 0.897755 0.582841
280 1 0.244864 0.820309 0.706298
139 1 0.000275719 0.949171 0.739397
57 1 0.250452 0.966438 0.613562
203 1 0.460468 0.899271 0.507037
38 1 0.334485 0.797953 0.567025
325 2 0.473697 0.816032 0.621459
174 1 0.388015 0.915313 0.658944
63 1 0.105171 0.685598 0.945853
243 1 0.176099 0.72759 0.797405
167 1 0.0884672 0.553328 0.824946
318 2 0.209471 0.601249 0.797474
207 1 0.0074544 0.693322 0.815838
155 1 0.0873353 0.514946 0.971511
85 1 0.406618 0.632451 0.931736
156 1 0.263936 0.558005 0.917256
294 2 0.375793 0.554403 0.833672
218 1 0.255628 0.709513 0.929971
31 1 0.327394 0.653142 0.752208
185 1 0.486888 0.626259 0.784791
69 1 0.491275 0.514628 0.890224
241 1 0.160363 0.826701 0.98108
47 1 0.0797532 0.95035 0.958756
265 1 0.0708025 0.845866 0.84251
289 2 0.0763118 0.978496 0.84067
173 1 0.221137 0.901173 0.844223
165 1 0.312097 0.997945 0.786219
342 2 0.387211 0.752831 0.958284
121 1 0.320624 0.85532 0.967149
287 1 0.420153 0.945981 0.879568
48 1 0.356693 0.792109 0.833017
333 2 0.275596 0.972969 0.953384
144 1 0.56227 0.208948 0.123565
11 1 0.683376 0.195399 0.216227
160 1 0.627968 0.0534472 0.115088
101 1 0.688071 0.223984 0.0422342
332 2 0.565515 0.15622 0.0128706
30 1 0.74292 0.0443139 0.239418
217 1 0.970478 0.234559 0.217555
161 1 0.777872 0.102958 0.0433107
68 1 0.845941 0.140728 0.200238
231 1 0.969818 0.0714298 0.207378
6 1 0.952167 0.167961 0.0749901
252 1 0.898538 0.0163807 0.0903201
221 1 0.557353 0.34817 0.0640679
272 1 0.692778 0.495973 0.0406698
313 2 0.581087 0.45602 0.136861
102 1 0.709692 0.372243 0.152572
209 1 0.971013 0.330821 0.070879
260 1 0.830305 0.291432 0.165286
100 1 0.940523 0.473323 0.00699583
240 1 0.803566 0.472293 0.230339
133 1 0.943735 0.39624 0.208918
54 1 0.830694 0.398357 0.0560574
148 1 0.834822 0.256701 0.0105439
187 1 0.66015 0.113977 0.354786
108 1 0.527756 0.111348 0.427323
74 1 0.506183 0.171057 0.258287
110 1 0.640005 0.17046 0.488761
49 1 0.589402 0.0115603 0.254167
322 2 0.773214 0.158937 0.295117
154 1 0.95368 0.175236 0.404207
343 2 0.776969 0.0432806 0.388096
153 1 0.806469 0.154357 0.440046
83 1 0.875366 0.0622362 0.326043
224 1 0.700624 0.253442 0.35275
321 2 0.55106 0.373937 0.342685
256 1 0.655565 0.379339 0.416613
113 1 0.515201 0.409323 0.452181
37 1 0.555988 0.257378 0.393344
291 2 0.747969 0.361383 0.272963
220 1 0.645132 0.450624 0.267601
94 1 0.598305 0.305269 0.253079
298 2 0.887154 0.298663 0.43632
130 1 0.854274 0.255849 0.314536
275 1 0.823732 0.423944 0.381291
212 1 0.973587 0.339488 0.350791
202 1 0.943454 0.432079 0.467117
195 1 0.764149 0.301892 0.48623
229 1 0.971971 0.497085 0.321424
228 1 0.652074 0.103406 0.635897
312 2 0.651243 0.232622 0.663102
8 1 0.580796 0.00419538 0.551781
239 1 0.52725 0.00725585 0.69564
314 2 0.639092 0.0223826 0.743685
72 1 0.511521 0.170582 0.612092
190 1 0.724632 0.0221489 0.501048
308 2 0.76028 0.141385 0.745714
142 1 0.898336 0.134303 0.546748
157 1 0.754669 0.195769 0.59207
80 1 0.867056 0.175583 0.689926
223 1 0.827676 0.0443629 0.651306
150 1 0.560853 0.415314 0.638134
141 1 0.621539 0.297791 0.56335
21 1 0.713922 0.468145 0.665522
91 1 0.551324 0.293893 0.724857
230 1 0.650141 0.479117 0.522573
336 2 0.745353 0.323774 0.605438
292 2 0.647673 0.367206 0.728588
235 1 0.808285 0.439111 0.559525
249 1 0.894605 0.285009 0.550179
16 1 0.969197 0.388311 0.629492
137 1 0.835372 0.331714 0.686592
273 1 0.972038 0.26765 0.723901
13 1 0.639485 0.232382 0.889562
210 1 0.728967 0.0462999 0.809046
35 1 0.665101 0.0836668 0.956037
278 1 0.576592 0.132116 0.757752
131 1 0.571276 0.0079284 0.85473
279 1 0.901815 0.102804 0.955764
70 1 0.775851 0.170398 0.882665
78 1 0.900607 0.0567579 0.793046
2 1 0.960544 0.2384 0.92481
353 2 0.991044 0.0361074 0.992235
222 1 0.805869 0.0042738 0.92579
355 2 0.535986 0.275172 0.948166
347 2 0.567524 0.433348 0.962918
10 1 0.723684 0.27039 0.763835
244 1 0.694893 0.35723 0.970495
248 1 0.744557 0.418023 0.807198
136 1 0.588018 0.377606 0.85357
171 1 0.855756 0.495533 0.754259
200 1 0.802986 0.482951 0.926759
46 1 0.862144 0.339418 0.84812
320 2 0.926096 0.368975 0.942597
247 1 0.98393 0.417884 0.807647
264 1 0.596168 0.613443 0.119028
281 1 0.713744 0.592822 0.223238
122 1 0.72208 0.68037 0.0952067
58 1 0.837016 0.570192 0.0603296
4 1 0.937973 0.549893 0.166312
262 1 0.910344 0.69521 0.124686
340 2 0.827494 0.611492 0.174159
242 1 0.83139 0.726837 0.0013449
86 1 0.978303 0.624319 0.01928
352 2 0.637664 0.785656 0.193909
43 1 0.715177 0.903334 0.215842
62 1 0.513483 0.750071 0.210309
354 2 0.716238 0.799222 0.0116977
42 1 0.58048 0.894887 0.164563
39 1 0.593436 0.779928 0.0798219
97 1 0.706718 0.928617 0.0333859
172 1 0.560824 0.971951 0.00600367
290 2 0.779668 0.996299 0.121554
138 1 0.870821 0.947376 0.211506
152 1 0.968128 0.85359 0.090208
191 1 0.815747 0.81127 0.134149
29 1 0.951514 0.815082 0.2368
71 1 0.64329 0.676814 0.315784
250 1 0.696466 0.547995 0.389208
15 1 0.5984 0.621013 0.475184
232 1 0.528371 0.519201 0.359592
274 1 0.838575 0.556831 0.463202
166 1 0.82913 0.589171 0.317339
245 1 0.960034 0.655218 0.276236
192 1 0.763695 0.703281 0.440246
176 1 0.902077 0.748974 0.409631
257 1 0.784873 0.717065 0.26053
295 2 0.896435 0.660686 0.497326
159 1 0.531394 0.792295 0.349875
56 1 0.626321 0.777262 0.470707
66 1 0.534631 0.958012 0.385487
285 1 0.69811 0.949791 0.363772
22 1 0.700287 0.809401 0.335381
300 2 0.601467 0.887528 0.282157
44 1 0.7458 0.872691 0.490842
349 2 0.61345 0.912963 0.480715
77 1 0.989556 0.950348 0.308558
216 1 0.837975 0.877413 0.33344
124 1 0.985639 0.876264 0.475825
158 1 0.862005 0.959397 0.461936
327 2 0.58382 0.724151 0.583446
143 1 0.63296 0.607283 0.647684
179 1 0.567897 0.734197 0.705802
341 2 0.73735 0.673849 0.68802
18 1 0.503574 0.54892 0.561063
254 1 0.602552 0.513287 0.749327
50 1 0.751162 0.625452 0.560197
358 2 0.819146 0.546681 0.648491
88 1 0.994356 0.526497 0.707528
120 1 0.86426 0.738549 0.592317
276 1 0.93476 0.559406 0.572741
277 1 0.873848 0.649455 0.722706
98 1 0.712365 0.767018 0.592432
107 1 0.586609 0.873672 0.608119
40 1 0.709031 0.947523 0.64539
330 2 0.663641 0.807329 0.704009
119 1 0.977032 0.997297 0.58109
269 1 0.784043 0.78228 0.732244
225 1 0.857546 0.889249 0.629886
237 1 0.991632 0.823018 0.649999
26 1 0.719525 0.625738 0.94447
315 2 0.638658 0.61587 0.833694
76 1 0.568366 0.633653 0.967162
186 1 0.740422 0.583299 0.787874
193 1 0.506229 0.743627 0.888016
52 1 0.65645 0.736714 0.821813
234 1 0.651476 0.504275 0.894571
5 1 0.944129 0.552356 0.856189
329 2 0.865469 0.62476 0.935569
32 1 0.798325 0.706433 0.857015
356 2 0.686323 0.960214 0.892049
194 1 0.602496 0.850123 0.919255
226 1 0.655907 0.897566 0.781197
116 1 0.51218 0.8536 0.762677
296 2 0.87661 0.804421 0.893298
211 1 0.940307 0.942318 0.889863
126 1 0.858048 0.880625 0.993334
170 1 0.833165 0.937502 0.769987
177 1 0.91562 0.822181 0.77973
53 1 0.752941 0.846926 0.884809
208 1 0.978392 0.767542 0.955749
ITEM: TIMESTEP
50000
ITEM: NUMBER OF ATOMS
360
ITEM: BOX BOUNDS pp pp pp
0.0000000000000000e+00 6.6943295008216896e+00
0.0000000000000000e+00 6.6943295008216896e+00
0.0000000000000000e+00 6.6943295008216896e+00
ITEM: ATOMS id type xs ys zs
140 1 0.0324846 0.101278 0.0066598
335 2 0.126682 0.191244 0.0215794
258 1 0.235234 0.167838 0.113075
168 1 0.0599915 0.13352 0.157819
313 2 0.369029 0.435626 0.166311
60 1 0.21793 0.101134 0.250224
127 1 0.454829 0.0264508 0.106912
129 1 0.384138 0.148913 0.0616597
109 1 0.362661 0.0667017 0.21783
66 1 0.46573 0.170857 0.217613
254 1 0.434669 0.341714 0.240619
99 1 0.127719 0.264987 0.157163
135 1 0.138785 0.489247 0.143363
100 1 0.0063306 0.464442 0.0577656
286 1 0.273384 0.375357 0.229976
41 1 0.131549 0.00975438 0.0804122
317 2 0.0181643 0.457162 0.187307
84 1 0.269063 0.428017 0.0757842
205 1 0.371997 0.296783 0.0683478
318 2 0.246906 0.309287 0.130538
199 1 0.46634 0.435554 0.066557
184 1 -0.00106959 0.24586 0.0405169
19 1 0.116729 0.357568 0.043595
289 2 0.129761 0.347676 0.242639
302 2 0.48561 0.0421462 0.222701
181 1 0.243529 0.152269 0.412351
27 1 0.0920714 0.470419 0.284104
24 1 0.338842 0.319342 0.383067
77 1 0.0823305 0.102142 0.344657
89 1 0.202094 0.00215735 0.385532
103 1 0.324998 0.215319 0.250771
12 1 0.0210861 0.354524 0.490502
314 2 0.329644 0.0477947 0.349483
57 1 0.391678 0.155405 0.389468
239 1 0.345824 0.0331934 0.474254
323 2 0.44783 0.255388 0.33008
105 1 0.11743 0.473609 0.44167
348 2 0.0232054 0.212422 0.367719
268 1 0.145195 0.232502 0.302499
94 1 0.290555 0.447177 0.456311
111 1 0.112705 0.230549 0.445112
212 1 0.0429353 0.336487 0.339692
128 1 0.203356 0.365262 0.358388
55 1 0.377966 0.449046 0.318421
350 2 0.148063 0.355386 0.474465
134 1 0.496729 0.361461 0.398603
147 1 0.0849438 0.0748714 0.489029
342 2 0.0331892 0.219668 0.248988
255 1 0.073866 0.146946 0.634602
106 1 0.299917 0.381399 0.647356
178 1 0.212797 0.153593 0.570438
151 1 0.15492 0.389355 0.709125
28 1 0.234003 0.2464 0.688107
282 1 0.402588 0.37212 0.543901
36 1 0.362301 0.165418 0.748332
72 1 0.331197 0.094253 0.615281
108 1 0.474976 0.122342 0.629748
319 2 0.24219 0.0942096 0.730845
125 1 0.253561 0.29589 0.5202
345 2 0.388338 0.00833017 0.707332
132 1 0.127753 0.280517 0.59415
166 1 0.179514 0.434408 0.57243
34 1 0.446757 0.276277 0.67115
288 1 0.176702 0.0083959 0.639512
310 2 0.212944 0.0388458 0.50902
45 1 0.402525 0.224199 0.509624
117 1 0.0067901 0.371906 0.654582
273 1 0.0826402 0.258481 0.735725
61 1 0.121069 0.0707515 0.764949
336 2 0.0791614 0.0975465 0.892743
197 1 0.218378 0.193095 0.833468
9 1 0.262751 0.0429803 0.835183
201 1 0.0878098 0.236742 0.910137
47 1 0.206357 0.103439 0.963426
65 1 0.403187 0.00841024 0.957073
338 2 0.461987 0.261106 0.804887
23 1 0.363218 0.20632 0.899856
334 2 0.210138 0.468285 0.807831
96 1 0.482208 0.314175 0.937482
193 1 0.416662 0.0531591 0.820044
293 2 0.217434 0.40207 0.971687
266 1 0.195846 0.340237 0.854668
297 2 0.0421865 0.381564 0.776863
270 1 0.0903572 0.451263 0.872645
92 1 0.343236 0.32313 0.789481
253 1 0.254399 0.267903 0.993039
114 1 0.35798 0.389011 0.936767
150 1 0.351753 0.47014 0.800515
37 1 0.491888 0.381859 0.795554
209 1 0.0775066 0.613927 0.112466
93 1 0.365448 0.910687 0.216529
20 1 0.154606 0.611808 0.245102
82 1 0.167059 0.730856 0.125524
90 1 0.273559 0.846156 0.116036
115 1 0.235945 0.604524 0.0610911
31 1 0.432782 0.579901 0.156243
355 2 0.367303 0.652482 0.0720027
189 1 0.302963 0.683259 0.175059
309 2 0.381253 0.90116 0.0854984
299 2 0.433349 0.687944 0.212235
95 1 0.277123 0.524307 0.186189
222 1 0.00788447 0.904004 -0.00220329
25 1 0.409095 0.776148 0.121127
245 1 0.133005 0.836976 0.0179933
204 1 0.0809002 0.854408 0.178719
324 2 0.276427 0.740205 0.0522141
347 2 0.00404041 0.976484 0.120815
54 1 0.0228726 0.759148 0.0582029
112 1 0.203514 0.950921 0.233669
162 1 0.295769 0.993756 0.102535
83 1 0.0439945 0.980612 0.23668
246 1 0.0906081 0.607446 0.400565
303 2 0.277166 0.620484 0.436999
51 1 0.234664 0.517014 0.334148
104 1 0.226316 0.695505 0.356704
232 1 0.359633 0.601884 0.294887
306 2 0.43706 0.829607 0.33374
110 1 0.436177 0.984669 0.340986
107 1 0.475051 0.716827 0.368115
38 1 0.0510618 0.961223 0.388179
346 2 0.140887 0.729454 0.434359
174 1 0.00365714 0.826716 0.437684
331 2 0.0932223 0.876396 0.307485
263 1 0.419425 0.869335 0.460259
203 1 0.168286 0.850416 0.398983
354 2 0.274067 0.802119 0.431795
143 1 0.357756 0.750174 0.288604
180 1 0.306288 0.911088 0.354933
15 1 0.385706 0.556155 0.426157
250 1 0.362636 0.709484 0.489002
182 1 0.0936097 0.734579 0.304554
252 1 0.221354 0.80124 0.252388
241 1 0.135144 0.671962 0.673963
155 1 0.0727898 0.515848 0.711453
196 1 0.0324808 0.511703 0.559143
307 2 0.0397207 0.616151 0.624245
165 1 0.286295 0.940409 0.702802
213 1 0.235206 0.523349 0.679511
118 1 0.0471467 0.725916 0.530359
243 1 0.246442 0.768374 0.709719
179 1 0.288364 0.648292 0.628786
50 1 0.447644 0.653053 0.618779
294 2 0.366407 0.611522 0.710741
121 1 0.406041 0.736368 0.728213
156 1 0.16578 0.595036 0.532089
167 1 0.195708 0.772619 0.545326
18 1 0.372942 0.517094 0.609726
120 1 0.0700715 0.821768 0.634957
356 2 0.189426 0.867443 0.639303
124 1 0.108496 0.92235 0.534751
79 1 0.0268974 0.99465 0.655646
123 1 0.425224 0.961558 0.593252
226 1 0.352389 0.810575 0.597952
349 2 0.480084 0.84454 0.63083
233 1 0.259453 0.913101 0.532945
7 1 0.482671 0.542121 0.732017
86 1 0.13882 0.68117 0.96718
269 1 0.150731 0.595368 0.831999
228 1 0.477013 0.8805 0.905512
33 1 0.360657 0.817858 0.972911
5 1 0.0103049 0.670746 0.760407
214 1 0.253747 0.527212 0.918188
42 1 0.402577 0.607626 0.837977
21 1 0.2768 0.667307 0.806395
48 1 0.297892 0.667682 0.949451
81 1 0.265892 0.95144 0.956671
4 1 0.0267184 0.775269 0.914185
311 2 0.204891 0.858315 0.911805
265 1 0.150117 0.761191 0.819683
63 1 0.122658 0.988577 0.919837
339 2 0.0273152 0.793469 0.758665
325 2 0.388218 0.752063 0.862114
280 1 0.299362 0.832676 0.841998
296 2 0.350224 0.950371 0.839359
206 1 0.39139 0.53734 0.997328
14 1 0.170745 0.900673 0.775103
170 1 0.0202264 0.921909 0.812182
284 1 0.448811 0.696408 0.98744
200 1 0.00612846 0.601358 0.933544
271 1 0.118316 0.534879 0.988789
173 1 0.427238 0.88818 0.751932
333 2 0.701683 0.155375 0.0647141
261 1 0.570192 0.139374 0.115763
272 1 0.993061 0.328464 0.189127
102 1 0.693877 0.229745 0.177385
238 1 0.616184 0.300873 0.00405123
260 1 0.90078 0.355843 0.0537549
283 1 0.852198 0.248988 0.168353
68 1 0.773721 0.0905436 0.139742
142 1 0.9089 0.136526 0.0911868
337 2 0.876787 0.232888 0.0196959
322 2 0.871792 0.390862 0.172454
163 1 0.518749 0.295463 0.120915
91 1 0.760329 0.278652 0.0516989
244 1 0.756752 0.428047 0.0784659
75 1 0.645581 0.387798 0.165676
52 1 0.626542 0.477769 0.0182603
216 1 0.884506 0.0020375 0.171214
35 1 0.900036 0.00118395 0.0193491
64 1 0.504617 0.480342 0.251395
149 1 0.755039 0.48656 0.23834
224 1 0.940865 0.123035 0.24803
76 1 0.722503 0.0163087 0.00494051
30 1 0.5477 0.198557 0.401182
207 1 0.968484 0.490964 0.400842
43 1 0.611867 0.00533715 0.407899
10 1 0.689092 0.135312 0.440715
332 2 0.682199 0.229087 0.333154
6 1 0.615751 0.106065 0.252457
144 1 0.780685 0.0152575 0.40759
73 1 0.779178 0.156135 0.280276
133 1 0.903067 0.412985 0.290062
225 1 0.903901 0.131628 0.408286
259 1 0.576906 0.28609 0.267664
1 1 0.640465 0.437168 0.317097
217 1 0.643265 0.328274 0.413773
256 1 0.755223 0.339806 0.298733
220 1 0.774199 0.463641 0.383783
301 2 0.61935 0.450244 0.442689
326 2 0.803322 0.23428 0.392074
59 1 0.915351 0.254211 0.31552
359 2 0.536711 0.0899792 0.346343
202 1 0.87553 0.32525 0.437697
74 1 0.50039 0.0619371 0.488509
358 2 0.895325 0.439409 0.688965
157 1 0.613542 0.15701 0.586071
341 2 0.909816 0.316832 0.559084
113 1 0.555424 0.279624 0.533031
13 1 0.763483 0.163472 0.647808
328 2 0.815326 0.0907289 0.512315
153 1 0.911731 0.0930712 0.633162
249 1 0.818987 0.216612 0.517182
154 1 0.9816 0.211891 0.514643
235 1 0.912711 0.239262 0.648729
308 2 0.812255 0.0672079 0.733537
264 1 0.519098 0.470005 0.512742
357 2 0.656632 0.0738992 0.685935
292 2 0.609009 0.382519 0.5695
175 1 0.609097 0.266307 0.700126
195 1 0.662655 0.414382 0.676786
230 1 0.700384 0.291886 0.571468
187 1 0.729081 0.432596 0.548574
16 1 0.892412 0.450052 0.551366
275 1 0.514209 0.398412 0.654318
185 1 0.806059 0.350718 0.64249
237 1 0.685082 0.0207337 0.559915
70 1 0.710233 0.155226 0.806149
171 1 0.650674 0.14142 0.93975
145 1 0.567228 0.019834 0.823893
290 2 0.689404 0.029009 0.883274
3 1 0.537385 0.153556 0.765959
312 2 0.711852 0.250335 0.91535
279 1 0.948483 0.185319 0.912886
32 1 0.855846 0.198022 0.797655
97 1 0.806235 0.0332399 0.855337
78 1 0.981444 0.136256 0.771765
315 2 0.982501 0.269221 0.816949
161 1 0.798508 0.153161 0.960837
227 1 0.501776 0.141501 0.924679
351 2 0.608077 0.391132 0.911707
248 1 0.788061 0.450752 0.815482
164 1 0.598678 0.273696 0.850013
46 1 0.87915 0.347367 0.782218
98 1 0.623053 0.463191 0.811838
231 1 0.725356 0.379822 0.931473
137 1 0.838 0.298901 0.919104
148 1 0.865191 0.48294 0.980599
277 1 0.734931 0.307513 0.789897
2 1 0.984328 0.365815 0.915352
211 1 0.951816 0.0401904 0.878456
87 1 0.56293 0.0184526 0.995278
247 1 0.951077 0.492698 0.807202
236 1 0.501856 0.466277 0.923675
320 2 0.848371 0.855568 0.0245654
69 1 0.70839 0.581123 0.0883833
221 1 0.526064 0.872214 0.0976783
22 1 0.723031 1.00182 0.253664
234 1 0.682165 0.701376 0.214759
240 1 0.901676 0.506559 0.159381
29 1 0.777859 0.891371 0.118217
251 1 0.821648 0.735755 0.0921051
101 1 0.635193 0.997385 0.122527
305 2 0.820832 0.615359 0.130092
160 1 0.568224 0.538561 0.136736
152 1 0.925411 0.869846 0.130175
11 1 0.923528 0.610604 0.0507786
136 1 0.647425 0.836328 0.182093
343 2 0.63945 0.872213 0.0331298
360 2 0.70069 0.747125 0.0894663
85 1 0.549813 0.689824 0.104174
344 2 0.511284 0.575639 0.0245013
242 1 0.835054 0.787821 0.234395
188 1 0.962018 0.709606 0.198228
49 1 0.508192 0.788332 0.234672
330 2 0.628994 0.561325 0.231831
39 1 0.616804 0.713422 0.427031
276 1 0.678083 0.595224 0.331306
159 1 0.533264 0.634777 0.255893
295 2 0.916264 0.746314 0.500792
67 1 0.744091 0.741062 0.358745
267 1 0.546765 0.532635 0.380905
122 1 0.84798 0.633885 0.256053
274 1 0.814036 0.608159 0.405627
158 1 0.917047 0.731277 0.368778
340 2 0.855012 0.526664 0.3108
138 1 0.958867 0.853218 0.287039
62 1 0.575205 0.948677 0.254529
71 1 0.547583 0.859239 0.381426
58 1 0.72314 0.874449 0.314714
130 1 0.686259 0.874624 0.468859
257 1 0.84876 0.865754 0.405184
316 2 0.628712 0.784351 0.311282
169 1 0.991282 0.582121 0.258233
146 1 0.520048 0.623642 0.497157
192 1 0.672334 0.569154 0.491663
281 1 0.944663 0.634795 0.482046
353 2 0.827196 0.921952 0.273845
191 1 0.916378 0.99576 0.336455
141 1 0.614207 0.568534 0.637752
198 1 0.555222 0.98308 0.680593
327 2 0.723655 0.630478 0.65806
172 1 0.649237 0.706693 0.577526
56 1 0.689306 0.737229 0.737082
53 1 0.776233 0.515 0.669956
219 1 0.906154 0.853573 0.551951
218 1 0.930546 0.554522 0.672453
190 1 0.927278 0.724002 0.636124
88 1 0.812256 0.624032 0.554709
287 1 0.553954 0.743955 0.67502
223 1 0.812438 0.96983 0.63972
40 1 0.660376 0.859246 0.623896
298 2 0.788087 0.937922 0.522799
285 1 0.514023 0.778163 0.530794
8 1 0.548737 0.925724 0.529715
139 1 0.932154 0.877605 0.690942
177 1 0.803502 0.812812 0.660473
194 1 0.827684 0.648855 0.70705
44 1 0.790299 0.76038 0.506215
80 1 0.931697 0.996148 0.50198
176 1 0.692388 0.580393 0.772067
186 1 0.725573 0.549303 0.940864
215 1 0.589703 0.603176 0.901317
17 1 0.510709 0.731705 0.839452
126 1 0.582632 0.771051 0.983029
183 1 0.729571 0.683591 0.886429
329 2 0.661262 0.7891 0.886006
26 1 0.852919 0.605296 0.847419
291 2 0.817796 0.628212 0.984552
208 1 0.863806 0.745986 0.941327
352 2 0.827352 0.933951 0.777446
278 1 0.70203 0.962663 0.749137
131 1 0.635642 0.907162 0.916766
262 1 0.886354 0.883234 0.895332
229 1 0.731716 0.807954 0.979641
210 1 0.754235 0.843345 0.817998
119 1 0.893084 0.760611 0.794106
300 2 0.661577 0.662757 0.990589
304 2 0.763438 0.917627 0.924884
116 1 0.578279 0.863376 0.777948
321 2 0.577031 0.625924 0.772742
ITEM: TIMESTEP
100000
ITEM: NUMBER OF ATOMS
360
ITEM: BOX BOUNDS pp pp pp
0.0000000000000000e+00 6.6943295008216896e+00
0.0000000000000000e+00 6.6943295008216896e+00
0.0000000000000000e+00 6.6943295008216896e+00
ITEM: ATOMS id type xs ys zs
162 1 0.211433 0.126805 0.159208
197 1 0.245584 0.278657 0.0657466
150 1 0.0211252 0.126226 0.130854
350 2 0.141073 0.158584 0.0525718
149 1 -0.0010298 0.456632 0.177087
240 1 0.255435 0.454606 0.192901
302 2 0.305311 0.0451046 0.204908
66 1 0.0747188 0.212927 0.241985
129 1 0.417663 0.247604 0.109276
65 1 0.382812 0.0840941 0.118852
111 1 0.1025 0.0389034 0.014878
23 1 0.279092 0.270299 0.205528
297 2 0.0245171 0.326354 0.225803
266 1 0.0725019 0.265913 0.0902488
62 1 0.264074 0.0433218 0.0456587
227 1 0.143827 0.442666 0.0744157
309 2 0.328722 0.157259 0.0290229
314 2 0.474733 0.465276 0.0718808
254 1 0.388269 0.391591 0.132712
37 1 0.288277 0.45713 0.0171369
92 1 0.448088 0.503028 0.209404
289 2 0.489818 0.350607 0.193875
99 1 0.142697 0.36405 0.209027
38 1 0.0589073 0.21117 0.427722
268 1 0.186471 0.172981 0.489924
286 1 0.349915 0.376209 0.45245
298 2 0.148769 0.0821686 0.406315
74 1 0.19903 0.0358643 0.282662
30 1 0.463475 0.0685186 0.265436
323 2 0.429694 0.163049 0.34367
24 1 0.330071 0.236704 0.426031
104 1 0.293686 0.0890832 0.387756
316 2 0.129482 0.479994 0.433497
58 1 0.0558901 0.0804005 0.308075
47 1 0.19344 0.216733 0.331953
113 1 0.471422 0.242391 0.275588
294 2 0.222381 0.301878 0.479272
358 2 0.105119 0.311014 0.33416
27 1 0.0800894 0.464805 0.318744
179 1 0.2089 0.393284 0.378785
346 2 0.44734 0.316257 0.410268
84 1 0.369003 0.338699 0.298107
59 1 0.103468 0.34321 0.470303
130 1 0.0386581 0.0573669 0.482868
128 1 0.34237 0.492432 0.332275
89 1 0.420916 0.0992698 0.47378
108 1 0.333991 0.155501 0.268137
196 1 0.102831 0.078392 0.689515
311 2 0.256036 0.216823 0.7308
288 1 0.276395 0.117123 0.630774
313 2 0.311136 0.0200928 0.520982
154 1 0.154261 0.211109 0.631042
328 2 0.324298 0.153684 0.521548
319 2 0.377943 0.355838 0.574071
341 2 0.416869 0.141205 0.614942
12 1 0.374443 0.206629 0.709989
292 2 0.0530886 0.124253 0.586649
282 1 0.43373 0.355473 0.686971
45 1 0.304741 0.2548 0.574617
106 1 0.329386 0.455825 0.725875
95 1 0.439945 0.478431 0.591067
55 1 0.239638 0.412572 0.548195
249 1 0.0701673 0.328909 0.679078
166 1 0.0698881 0.467557 0.557477
148 1 0.236096 0.341051 0.687959
233 1 0.401096 0.00928104 0.607083
181 1 0.446693 0.242277 0.523062
202 1 0.187736 0.0245573 0.506107
344 2 0.239767 0.00859438 0.671221
156 1 0.0301272 0.490659 0.697832
230 1 0.00322219 0.27392 0.563054
255 1 0.236524 0.164469 0.951577
140 1 0.0830397 0.169478 0.92751
307 2 0.134406 0.0549476 0.885808
17 1 0.434936 0.478384 0.844303
78 1 0.0264539 0.0490916 0.812042
324 2 0.0288893 0.441427 0.914024
157 1 0.491593 0.209433 0.828216
14 1 0.338968 0.155508 0.850617
214 1 0.398352 0.0785575 0.964635
28 1 0.402081 0.242762 0.961929
273 1 0.00211642 0.304739 0.909358
235 1 0.199483 0.123468 0.797357
94 1 0.282013 0.428829 0.869576
125 1 0.226373 0.267445 0.848727
61 1 0.145312 0.336422 0.95891
132 1 0.124627 0.402734 0.801228
151 1 0.370444 0.314141 0.826617
36 1 0.412245 0.391505 0.965451
306 2 0.300476 0.326679 0.958503
245 1 0.254268 0.0234313 0.89004
110 1 0.094455 0.224252 0.786517
200 1 0.155736 0.502269 0.942557
310 2 0.484348 0.0745065 0.849699
9 1 0.344246 0.045028 0.754932
300 2 0.109139 0.567495 0.0431945
228 1 0.0938403 0.675447 0.119062
2 1 0.328868 0.560901 0.118319
303 2 0.292708 0.894166 0.0414951
143 1 0.154541 0.56223 0.20908
90 1 0.40085 0.798835 0.055217
93 1 0.400357 0.895215 0.180824
271 1 0.456284 0.630962 0.119811
343 2 0.341516 0.665286 0.0438104
280 1 0.415409 0.949589 0.0441172
189 1 0.282204 0.746009 0.137184
122 1 0.00443339 0.756743 0.209044
239 1 0.257436 0.942601 0.165005
270 1 0.169069 0.904117 0.0421029
232 1 0.151284 0.83073 0.170691
219 1 0.0914669 0.975168 0.147557
204 1 0.013096 0.891688 0.0276755
247 1 0.215727 0.625498 0.0318624
136 1 0.421167 0.738742 0.216235
299 2 0.496866 0.738443 0.121319
48 1 0.308239 0.645343 0.239237
203 1 0.225014 0.708121 0.410011
135 1 0.184707 0.558812 0.356574
158 1 0.0569029 0.591237 0.441929
20 1 0.0209147 0.752635 0.387913
169 1 0.0338469 0.623175 0.29267
134 1 0.163507 0.715443 0.255287
163 1 0.490145 0.606182 0.318406
159 1 0.373217 0.684887 0.370598
345 2 0.490313 0.863636 0.46237
51 1 0.282106 0.827741 0.28941
10 1 0.48168 0.979441 0.391733
71 1 0.343846 0.971765 0.302528
241 1 0.0317903 0.866484 0.482442
223 1 0.139935 0.82475 0.351646
267 1 0.466176 0.497476 0.428959
127 1 0.233493 0.936674 0.40284
349 2 0.316382 0.797145 0.416959
336 2 0.149153 0.919718 0.254291
250 1 0.437078 0.830384 0.357439
263 1 0.364613 0.918264 0.473075
124 1 0.0785414 0.955299 0.378376
281 1 0.333457 0.546061 0.478592
213 1 0.0730403 0.614637 0.604922
252 1 0.188272 0.564153 0.512922
60 1 0.280206 0.907146 0.602004
114 1 0.222161 0.649531 0.709285
147 1 0.00736976 0.900393 0.737096
105 1 0.31641 0.767521 0.674701
275 1 0.323546 0.594614 0.618263
141 1 0.336853 0.706084 0.524343
321 2 0.431862 0.611273 0.541316
287 1 0.177706 0.817502 0.690677
265 1 0.0615766 0.764704 0.629468
167 1 0.193857 0.702404 0.562766
120 1 0.103581 0.921357 0.619501
64 1 0.458477 0.688973 0.639602
165 1 0.426698 0.81968 0.564729
325 2 0.385004 0.92212 0.697621
42 1 0.18396 0.512917 0.653881
178 1 0.18063 0.850113 0.501742
295 2 0.0871754 0.733964 0.511743
293 2 0.183628 0.64637 0.894446
222 1 0.0615486 0.615241 0.942084
7 1 0.135599 0.562993 0.810609
44 1 0.0697638 0.701211 0.806752
87 1 0.337608 0.903129 0.923374
96 1 0.424209 0.544701 0.986886
18 1 0.292195 0.585964 0.896013
262 1 0.400336 0.613892 0.762827
183 1 0.37298 0.703965 0.881154
176 1 0.220088 0.752273 0.840778
355 2 0.262835 0.541757 0.783298
211 1 0.101165 0.929747 0.901627
86 1 0.100083 0.776642 0.941937
347 2 0.110943 0.820121 0.801632
81 1 0.445067 0.952682 0.812009
329 2 0.197369 0.84903 0.918135
33 1 0.473405 0.838575 0.916692