ITEM: TIMESTEP
0
ITEM: NUMBER OF ATOMS
360
ITEM: BOX BOUNDS pp pp pp
0.0000000000000000e+00 6.6943295008216896e+00
0.0000000000000000e+00 6.6943295008216896e+00
0.0000000000000000e+00 6.6943295008216896e+00
ITEM: ATOMS id type xs ys zs
270 1 0.168646 0.089489 0.145112
227 1 0.23941 0.214186 0.0508694
122 1 0.0560357 0.216912 0.237525
254 1 0.206518 0.22765 0.221755
58 1 0.172924 0.00985862 0.0181269
268 1 0.0215417 0.00706135 0.02556
11 1 0.0106543 0.112886 0.134109
273 1 0.0995574 0.149913 0.00898031
128 1 0.371738 0.234637 0.180557
33 1 0.469374 0.148102 0.094219
99 1 0.350027 0.0788028 0.19088
302 2 0.265505 0.0153611 0.127075
124 1 0.32001 0.0933912 0.0397534
328 2 0.466328 0.0644303 0.245108
247 1 0.233474 0.374088 0.180227
216 1 0.10417 0.27214 0.0997247
143 1 0.248354 0.372316 0.0272882
222 1 0.129222 0.452599 0.0486797
276 1 0.36623 0.261167 0.0264596
1 1 0.393501 0.415551 0.154608
37 1 0.27123 0.498272 0.075679
241 1 0.124603 0.207457 0.373033
202 1 0.116399 0.0800241 0.289189
153 1 0.229164 0.0658208 0.39781
8 1 0.0888476 0.0544644 0.464239
338 2 0.0144313 0.015444 0.271107
354 2 0.0409389 0.173487 0.464079
344 2 0.184408 0.145576 0.489201
108 1 0.273939 0.228237 0.368071
358 2 0.258988 0.117199 0.287647
353 2 0.346797 0.0887677 0.444015
184 1 0.40576 0.15209 0.341889
288 1 0.460441 0.125503 0.499269
55 1 0.13913 0.485554 0.378606
52 1 0.115185 0.352011 0.303315
57 1 0.00603169 0.451489 0.306983
348 2 0.125308 0.347534 0.431347
160 1 0.0141442 0.288969 0.424838
333 2 0.427492 0.456578 0.267869
38 1 0.39268 0.251799 0.467736
335 2 0.298252 0.304096 0.269249
47 1 0.287553 0.391135 0.368343
246 1 0.451177 0.37776 0.452231
24 1 0.424229 0.321319 0.290974
150 1 0.25513 0.30038 0.483834
111 1 0.144781 0.116558 0.733434
147 1 0.20574 0.0405177 0.574777
119 1 0.0641729 0.120198 0.60314
360 2 0.235693 0.0306662 0.697001
233 1 0.35922 0.0816661 0.653617
181 1 0.435157 0.212618 0.739923
346 2 0.402857 0.196404 0.614252
120 1 0.287592 0.162324 0.556285
252 1 0.23438 0.265068 0.649491
196 1 0.172665 0.434022 0.508005
255 1 0.0145504 0.427387 0.740017
9 1 0.1133 0.254205 0.540203
185 1 0.23926 0.420013 0.633549
318 2 0.111435 0.359305 0.630975
45 1 0.0643077 0.254602 0.697275
274 1 0.0195203 0.399795 0.547252
253 1 0.484595 0.359496 0.719218
148 1 0.324992 0.452145 0.51036
17 1 0.371432 0.32015 0.603719
125 1 0.45838 0.459335 0.60354
81 1 0.23551 0.0906685 0.897445
14 1 0.114879 0.190896 0.843566
62 1 0.0931365 0.0261923 0.879003
324 2 0.000441937 0.242618 0.941734
193 1 0.451901 0.0660598 0.788478
199 1 0.38491 0.157858 0.89761
295 2 0.331878 0.049097 0.827269
74 1 0.454972 0.0171602 0.951789
151 1 0.289111 0.148763 0.773186
42 1 0.0563745 0.459739 0.896906
69 1 0.106237 0.325779 0.951317
94 1 0.212513 0.421245 0.905588
110 1 0.180744 0.31493 0.793318
343 2 0.0736857 0.342574 0.830041
213 1 0.173467 0.473914 0.763184
284 1 0.331724 0.481813 0.836874
28 1 0.402566 0.311518 0.87892
205 1 0.252882 0.262259 0.905284
106 1 0.480915 0.439683 0.863557
96 1 0.390415 0.428891 0.972673
249 1 0.320248 0.345211 0.7541
314 2 0.127154 0.589527 0.0657734
359 2 0.248465 0.599985 0.172353
180 1 0.0356885 0.526343 0.151679
23 1 0.112862 0.707741 0.032702
179 1 0.145128 0.671524 0.175763
2 1 0.157117 0.50471 0.227539
59 1 0.253875 0.656251 0.0367159
141 1 0.380485 0.722402 0.0675728
18 1 0.367054 0.592345 0.143008
286 1 0.293941 0.724875 0.182334
277 1 0.427932 0.718933 0.241465
305 2 0.148872 0.896434 0.203227
107 1 0.0590094 0.799859 0.187997
232 1 0.0466897 0.960715 0.167904
347 2 0.217362 0.767939 0.0996453
29 1 0.117115 0.86667 0.0624581
65 1 0.432382 0.995427 0.0949665
250 1 0.413217 0.839162 0.151628
298 2 0.380339 0.945225 0.219152
310 2 0.325782 0.931899 0.0439671
112 1 0.26442 0.872527 0.140811
27 1 0.057036 0.613488 0.302668
159 1 0.217155 0.633771 0.305344
43 1 0.0268904 0.535455 0.463934
192 1 0.165082 0.709561 0.431423
188 1 0.0166008 0.705516 0.419305
135 1 0.310313 0.727084 0.376722
236 1 0.400436 0.523779 0.40625
327 2 0.342433 0.640163 0.29746
198 1 0.454485 0.68973 0.410136
53 1 0.281706 0.603341 0.473342
240 1 0.305254 0.514209 0.261302
267 1 0.462956 0.580838 0.287937
316 2 0.255196 0.528018 0.374924
313 2 0.149049 0.956673 0.42472
167 1 0.249008 0.871799 0.377341
356 2 0.0410483 0.796915 0.326218
210 1 0.097956 0.914937 0.312812
44 1 0.0773307 0.84939 0.438407
203 1 0.173273 0.788994 0.272725
127 1 0.251262 0.975944 0.256729
115 1 0.483469 0.986837 0.468621
263 1 0.420798 0.839456 0.341118
173 1 0.376266 0.986523 0.350847
345 2 0.299824 0.824586 0.264701
281 1 0.137565 0.655658 0.707087
166 1 0.0442536 0.646939 0.584622
39 1 0.1026 0.5109 0.628447
259 1 0.226873 0.582012 0.612393
311 2 0.0264184 0.572427 0.726235
20 1 0.242829 0.730322 0.555787
349 2 0.156933 0.552708 0.508192
114 1 0.276701 0.723786 0.728939
275 1 0.339042 0.539973 0.700606
331 2 0.357978 0.724061 0.501423
105 1 0.389461 0.687875 0.620916
339 2 0.463002 0.501197 0.748374
95 1 0.491421 0.590168 0.520234
355 2 0.347647 0.564369 0.570652
244 1 0.477649 0.612997 0.698024
309 2 0.406389 0.692538 0.748215
123 1 0.0548058 0.996592 0.687776
67 1 0.022959 0.942524 0.543152
158 1 0.088954 0.798266 0.616097
229 1 0.179285 0.913392 0.664938
10 1 0.189649 0.884675 0.51926
178 1 0.306978 0.838267 0.622829
300 2 0.312215 0.957655 0.621
162 1 0.425913 0.811476 0.691327
282 1 0.463205 0.97023 0.645153
238 1 0.404892 0.842944 0.502008
104 1 0.339661 0.977596 0.508606
239 1 0.183591 0.73411 0.874973
79 1 0.0835309 0.620166 0.833761
86 1 0.24536 0.592623 0.812665
90 1 0.181047 0.570187 0.954778
189 1 0.00809006 0.576682 0.995939
234 1 0.443078 0.587178 0.834587
245 1 0.336203 0.720684 0.892514
183 1 0.490222 0.693018 0.960412
176 1 0.343269 0.575729 0.95207
163 1 0.49272 0.55445 0.995614
51 1 0.0562268 0.786418 0.919961
164 1 0.000872971 0.894327 0.79034
63 1 0.164925 0.891141 0.911845
4 1 0.136656 0.824227 0.766831
352 2 0.0246049 0.920432 0.934801
34 1 0.20192 0.981819 0.798985
131 1 0.466006 0.796792 0.850673
325 2 0.403129 0.928157 0.859414
157 1 0.419607 0.848533 0.98616
194 1 0.302603 0.964591 0.925126
97 1 0.284061 0.841728 0.837013
48 1 0.268937 0.818521 0.996211
60 1 0.345789 0.949318 0.754264
41 1 0.700425 0.244063 0.188389
171 1 0.645144 0.0869476 0.0467863
308 2 0.594131 0.167644 0.14498
30 1 0.512752 0.175831 0.240474
129 1 0.607595 0.236118 0.0409669
91 1 0.619346 0.0582923 0.198467
303 2 0.546458 0.0318647 0.107836
84 1 0.754271 0.192467 0.00788421
109 1 0.8954 0.206848 0.181907
219 1 0.766426 0.111379 0.152456
142 1 0.878059 0.10842 0.0459376
132 1 0.96045 0.245973 0.0582867
73 1 0.902874 0.0527238 0.231003
92 1 0.505189 0.29646 0.153736
66 1 0.748823 0.480583 0.0983649
138 1 0.643015 0.361296 0.104998
271 1 0.554601 0.44863 0.197444
293 2 0.517432 0.460542 0.0796672
260 1 0.837958 0.318366 0.0204842
291 2 0.909973 0.446913 0.13583
168 1 0.993222 0.368627 0.180925
103 1 0.989399 0.419964 0.0355199
269 1 0.821346 0.359589 0.152579
201 1 0.655264 0.170018 0.316907
257 1 0.698363 0.0387343 0.39455
6 1 0.529725 0.241007 0.395653
71 1 0.534125 0.0616955 0.351518
212 1 0.61976 0.155805 0.47114
174 1 0.758734 0.202157 0.445803
130 1 0.848538 0.0616712 0.412443
70 1 0.798954 0.135055 0.298794
235 1 0.976276 0.125486 0.355481
350 2 0.957903 0.0676908 0.478555
299 2 0.651426 0.261537 0.401794
113 1 0.529734 0.439132 0.347443
126 1 0.602591 0.314894 0.290018
22 1 0.618568 0.374728 0.450084
312 2 0.551081 0.466974 0.478376
209 1 0.69879 0.446244 0.256758
315 2 0.812196 0.261873 0.260451
297 2 0.759328 0.46322 0.368665
80 1 0.928752 0.276433 0.312002
117 1 0.913326 0.395564 0.422783
100 1 0.857638 0.431842 0.272824
272 1 0.771227 0.323722 0.364177
279 1 0.753725 0.456785 0.4957
231 1 0.537285 0.160462 0.647046
13 1 0.718485 0.0897362 0.695371
320 2 0.574002 0.0245618 0.709258
292 2 0.662121 0.14258 0.589835
133 1 0.610525 0.0356508 0.555306
46 1 0.790484 0.193091 0.611129
230 1 0.765711 0.0351092 0.54598
78 1 0.930201 0.0513799 0.592006
342 2 0.856348 0.0166036 0.695129
214 1 0.93176 0.188041 0.663825
283 1 0.914376 0.192912 0.504238
175 1 0.516713 0.281494 0.563099
75 1 0.636759 0.264464 0.711385
195 1 0.669607 0.281316 0.54636
56 1 0.606198 0.408366 0.593331
278 1 0.795026 0.288745 0.738099
3 1 0.833522 0.464883 0.73552
154 1 0.758641 0.395027 0.635779
12 1 0.914391 0.357221 0.646457
319 2 0.994022 0.270163 0.588375
332 2 0.87512 0.457549 0.546193
264 1 0.826542 0.315952 0.52031
301 2 0.66351 0.12877 0.933273
76 1 0.528566 0.15492 0.935171
140 1 0.704376 0.203449 0.844211
224 1 0.740202 0.0318406 0.869212
36 1 0.590986 0.115141 0.795493
144 1 0.600378 0.0125008 0.913127
266 1 0.955877 0.11778 0.909929
170 1 0.843412 0.142193 0.773493
307 2 0.820783 0.103602 0.927944
218 1 0.855214 0.228755 0.905394
40 1 0.964535 0.049572 0.774148
7 1 0.972398 0.226796 0.809579
85 1 0.669236 0.398208 0.783623
322 2 0.595368 0.419716 0.885805
31 1 0.561919 0.297806 0.856385
152 1 0.687815 0.334986 0.94303
242 1 0.542354 0.375134 0.989769
262 1 0.64753 0.498564 0.997262
296 2 0.914193 0.356542 0.777871
228 1 0.849399 0.470385 0.97097
208 1 0.811593 0.399171 0.860002
200 1 0.952829 0.347503 0.897629
25 1 0.679914 0.587897 0.179057
146 1 0.616954 0.641202 0.0334282
93 1 0.529825 0.586425 0.146641
330 2 0.765145 0.713769 0.0556201
68 1 0.830431 0.674823 0.175152
5 1 0.890196 0.573559 0.0843408
289 2 0.811287 0.520303 0.186293
186 1 0.871365 0.732732 0.000346598
204 1 0.980817 0.684852 0.135106
49 1 0.930011 0.563053 0.249906
261 1 0.763647 0.596968 0.00708515
280 1 0.506952 0.955894 0.217233
161 1 0.668322 0.766019 0.17484
83 1 0.538708 0.755995 0.0976716
72 1 0.672074 0.923598 0.133773
187 1 0.667718 0.819709 0.0165431
145 1 0.55729 0.935051 0.0347389
139 1 0.741407 0.963358 0.000791196
329 2 0.845392 0.873673 0.00867113
102 1 0.884054 0.959989 0.105672
134 1 0.966962 0.832773 0.0702129
101 1 0.803231 0.83213 0.118728
337 2 0.913944 0.806545 0.175369
19 1 0.768015 0.976466 0.224857
35 1 0.74548 0.644315 0.494693
221 1 0.58929 0.663238 0.298387
206 1 0.642344 0.53895 0.417264
89 1 0.592249 0.68032 0.463344
304 2 0.528303 0.58697 0.394124
317 2 0.617947 0.53558 0.298786
334 2 0.723362 0.706366 0.280342
226 1 0.765346 0.58553 0.308787
340 2 0.960052 0.615782 0.37226
169 1 0.955126 0.729738 0.278307
223 1 0.838478 0.701238 0.384597
15 1 0.868198 0.559323 0.441029
326 2 0.500803 0.931703 0.337109
321 2 0.588954 0.967438 0.411644
243 1 0.655359 0.911419 0.306205
50 1 0.551908 0.830932 0.443808
116 1 0.706235 0.764726 0.384466
136 1 0.550904 0.812435 0.258064
121 1 0.683099 0.903503 0.496265
220 1 0.916124 0.832701 0.389658
256 1 0.78329 0.904171 0.387212
182 1 0.952888 0.89653 0.258496
177 1 0.974937 0.978815 0.385888
351 2 0.861679 0.971162 0.316737
172 1 0.809405 0.798537 0.274423
54 1 0.631888 0.583892 0.58841
248 1 0.667593 0.639089 0.741615
306 2 0.710518 0.506796 0.727648
287 1 0.553205 0.732507 0.733194
225 1 0.581037 0.50366 0.710109
197 1 0.949302 0.51715 0.615757
165 1 0.772736 0.699517 0.654967
32 1 0.788317 0.557534 0.610598
258 1 0.888376 0.665169 0.547603
87 1 0.990338 0.720533 0.702199
207 1 0.892411 0.622992 0.720702
88 1 0.66747 0.766226 0.57985
77 1 0.602845 0.88828 0.658896
341 2 0.692141 0.970134 0.623576
323 2 0.506816 0.890925 0.56343
64 1 0.509859 0.755861 0.570766
82 1 0.949563 0.809362 0.531074
285 1 0.873576 0.93338 0.519235
294 2 0.875588 0.776778 0.630331
237 1 0.77424 0.884024 0.647452
191 1 0.937344 0.896163 0.658119
156 1 0.796327 0.798861 0.504831
215 1 0.631107 0.702084 0.884019
137 1 0.580856 0.556605 0.865333
149 1 0.731096 0.532103 0.856783
61 1 0.922934 0.524529 0.846421
357 2 0.890848 0.610374 0.951163
16 1 0.787716 0.684652 0.875577
190 1 0.936456 0.69716 0.869053
21 1 0.516112 0.926542 0.783196
98 1 0.706522 0.791364 0.75212
290 2 0.545267 0.804815 0.980924
26 1 0.618037 0.85834 0.873884
336 2 0.510026 0.896897 0.907682
217 1 0.683876 0.94915 0.7602
251 1 0.866801 0.784462 0.768979
211 1 0.894175 0.982856 0.953629
155 1 0.762769 0.844876 0.890971
265 1 0.843173 0.947471 0.807629
118 1 0.909552 0.833819 0.906446
ITEM: TIMESTEP
50000
ITEM: NUMBER OF ATOMS
360
ITEM: BOX BOUNDS pp pp pp
0.0000000000000000e+00 6.6943295008216896e+00
0.0000000000000000e+00 6.6943295008216896e+00
0.0000000000000000e+00 6.6943295008216896e+00
ITEM: ATOMS id type xs ys zs
250 1 0.243415 0.168351 0.0331885
280 1 0.183135 0.0590646 0.200427
100 1 0.126442 0.199274 0.11823
268 1 0.106559 0.0563898 0.054979
103 1 0.15962 0.481365 0.0569525
269 1 0.295375 0.1838 0.163438
333 2 0.421606 0.212852 0.163295
33 1 0.371006 0.0207212 0.138385
58 1 0.402996 0.155606 0.0617327
99 1 0.347158 0.44856 0.0841394
163 1 0.489172 0.375146 0.11318
304 2 0.461925 0.402477 0.241618
184 1 0.256622 0.313254 0.0724507
42 1 0.0935809 0.370435 0.163191
298 2 0.240613 0.417383 0.158827
92 1 0.21615 0.300407 0.233048
30 1 0.370699 0.322575 0.178819
328 2 0.258725 0.073477 0.107174
218 1 0.0956117 0.332894 0.0110422
241 1 0.0710436 0.0980527 0.460564
55 1 0.208048 0.167844 0.302324
340 2 0.199747 0.125271 0.416355
11 1 0.0469878 0.0953796 0.308122
246 1 0.37433 0.339692 0.330953
288 1 0.42196 0.171601 0.275195
173 1 0.317538 0.0690143 0.30961
360 2 0.39457 0.129931 0.391483
277 1 0.293507 0.0464216 0.471043
47 1 0.298125 0.202673 0.43123
247 1 0.327389 0.47273 0.254478
254 1 0.237085 0.334594 0.389294
324 2 0.116446 0.344719 0.338699
122 1 0.109731 0.224289 0.396545
240 1 0.286904 0.476312 0.42367
143 1 0.173175 0.454882 0.275365
38 1 0.471925 0.243999 0.407142
358 2 0.318031 0.238347 0.28362
35 1 0.0191389 0.411877 0.278354
113 1 0.448141 0.479733 0.334037
258 1 0.128804 0.44868 0.419262
10 1 0.443625 0.0198255 0.428046
85 1 0.406669 0.366278 0.484515
312 2 0.444502 0.487027 0.478329
108 1 0.172106 0.0130201 0.35233
226 1 0.0442476 0.256933 0.270428
310 2 0.14084 0.0692243 0.640497
14 1 0.189748 0.247249 0.673118
60 1 0.237158 0.103215 0.711537
12 1 0.0507353 0.16744 0.587756
147 1 0.196326 0.154933 0.552184
320 2 0.463752 0.0061308 0.577621
335 2 0.443079 0.247804 0.529485
175 1 0.493273 0.158842 0.639816
346 2 0.262781 0.013518 0.600879
199 1 0.361699 0.186743 0.724638
233 1 0.36109 0.156093 0.571146
40 1 0.0018455 0.266275 0.730291
17 1 0.490984 0.447518 0.589531
206 1 0.0968075 0.302099 0.541144
159 1 0.187358 0.41474 0.547741
57 1 0.291147 0.298063 0.557075
274 1 0.112499 0.380425 0.688917
172 1 0.0333421 0.456679 0.541819
178 1 0.372352 0.0364045 0.673698
120 1 0.454521 0.305194 0.650809
148 1 0.335283 0.46208 0.583967
295 2 0.431043 0.429338 0.688044
196 1 0.313103 0.363005 0.705182
111 1 0.0511766 0.0997395 0.739621
283 1 0.00976495 0.00734903 0.617074
188 1 0.223757 0.497613 0.693779
344 2 0.14571 0.43319 0.914848
29 1 0.069452 0.0478531 0.89055
352 2 0.185318 0.0706025 0.933082
343 2 0.240414 0.261943 0.79956
9 1 0.354943 0.291846 0.837208
266 1 0.117922 0.21033 0.821374
252 1 0.262301 0.151152 0.86685
302 2 0.351658 0.196966 0.94637
124 1 0.442581 0.114439 0.896355
273 1 0.309384 0.0442132 0.969897
325 2 0.344163 0.0865467 0.794922
62 1 0.0984344 0.176004 0.965896
69 1 0.202994 0.384043 0.803715
205 1 0.218209 0.281405 0.92165
7 1 0.049922 0.369114 0.85054
275 1 0.409745 0.449774 0.934063
110 1 0.259815 0.420425 0.961424
185 1 0.494429 0.22637 0.784918
318 2 0.323313 0.410637 0.83641
21 1 0.244509 -0.00038991 0.831212
150 1 0.484502 0.384751 0.802433
284 1 0.484263 0.0466488 0.768482
353 2 0.0139716 0.16254 0.874042
128 1 0.377934 0.312722 0.979479
286 1 0.160392 0.674003 0.0899044
359 2 0.0848671 0.585464 0.0718113
27 1 0.0714721 0.539793 0.194685
2 1 0.0243847 0.694272 0.138923
211 1 0.00264137 0.955963 0.00570911
24 1 0.45653 0.517935 0.177016
327 2 0.360611 0.575016 0.0957332
334 2 0.276286 0.696427 0.163851
1 1 0.252589 0.557235 0.150222
65 1 0.408454 0.672904 0.166766
176 1 0.295985 0.725124 0.0333766
127 1 0.277988 0.948654 0.228985
167 1 0.258709 0.948186 0.0749571
183 1 0.483016 0.550828 0.0311709
270 1 0.0917341 0.940959 0.166036
51 1 0.0653723 0.812412 0.0568995
263 1 0.223508 0.817439 0.137791
326 2 0.116963 0.771893 0.170607
331 2 0.43105 0.840379 0.199989
203 1 0.378498 0.839231 0.0789281
37 1 0.155328 0.677704 0.248144
192 1 0.192158 0.739737 0.392256
338 2 0.0685834 0.529159 0.331192
25 1 0.458829 0.726649 0.299782
96 1 0.193484 0.580656 0.356229
18 1 0.318425 0.808835 0.27242
95 1 0.330289 0.788379 0.487365
357 2 0.260267 0.659085 0.460611
89 1 0.40991 0.609989 0.421979
337 2 0.403207 0.584528 0.272467
53 1 0.213442 0.880293 0.467231
198 1 0.304251 0.658807 0.283069
219 1 0.43929 0.984436 0.274228
135 1 0.318596 0.927042 0.377158
316 2 0.348436 0.738243 0.372562
177 1 0.0716065 0.847345 0.416927
153 1 0.168399 0.849617 0.280192
202 1 0.0452418 0.938579 0.305912
20 1 0.4545 0.853694 0.369383
356 2 0.0440349 0.971224 0.432707
23 1 0.0463539 0.634577 0.410407
107 1 0.0329438 0.760412 0.302013
259 1 0.471967 0.747487 0.473676
292 2 0.359624 0.893397 0.681889
86 1 0.14706 0.635057 0.674147
112 1 0.101537 0.788753 0.688397
300 2 0.219995 0.758474 0.719725
43 1 0.146626 0.57327 0.502163
39 1 0.0105366 0.569639 0.646425
54 1 0.476776 0.599109 0.581769
166 1 0.277238 0.60246 0.585693
244 1 0.47052 0.79083 0.62062
332 2 0.38633 0.673457 0.533155
348 2 0.368098 0.580362 0.669816
229 1 0.148392 0.968288 0.715239
158 1 0.193868 0.735475 0.54543
82 1 0.0428426 0.700232 0.554512
133 1 0.22907 0.867958 0.626988
210 1 0.0641293 0.863627 0.563039
125 1 0.445563 0.663498 0.736183
44 1 0.36217 0.9383 0.553892
282 1 0.329252 0.761774 0.651219
296 2 0.120407 0.523112 0.616145
119 1 0.144834 0.99057 0.541225
245 1 0.117449 0.680433 0.819361
255 1 0.162493 0.609042 0.955111
347 2 0.234773 0.726515 0.844667
45 1 0.0447364 0.513493 0.9461
157 1 0.450274 0.836199 0.92783
131 1 0.220294 0.52002 0.855833
234 1 0.361799 0.716409 0.863961
355 2 0.326397 0.594818 0.868078
90 1 0.0216511 0.665882 0.978662
213 1 0.367906 0.509783 0.766906
197 1 0.0873086 0.526782 0.782158
179 1 0.03064 0.851957 0.895129
194 1 0.157363 0.936481 0.952212
281 1 0.274118 0.642325 0.75022
97 1 0.156896 0.832144 0.82379
141 1 0.166158 0.76535 0.961154
59 1 0.301045 0.861412 0.949141
106 1 0.468105 0.59333 0.881131
81 1 0.381751 0.947378 0.843039
114 1 0.449296 0.816559 0.776693
4 1 0.298891 0.853026 0.781908
336 2 0.486775 0.717295 0.867914
94 1 0.300691 0.564945 0.989043
345 2 0.0255918 0.785361 0.790438
146 1 0.434477 0.692684 0.995142
74 1 0.457447 0.983188 0.987375
36 1 0.676498 0.165779 0.0743672
142 1 0.996458 0.104872 0.150301
102 1 0.986472 0.243437 0.0994425
222 1 0.974137 0.40018 0.0513203
271 1 0.584296 0.471619 0.235642
260 1 0.721373 0.0254617 0.0873881
193 1 0.552259 0.10313 0.0196497
84 1 0.837738 0.189128 0.0301152
139 1 0.634379 0.170031 0.232082
354 2 0.882615 0.2034 0.15972
144 1 0.638816 0.0114918 0.216176
180 1 0.901923 0.489308 0.21014
293 2 0.674732 0.431333 0.101368
68 1 0.770305 0.384914 0.227059
15 1 0.789256 0.479839 0.0532608
201 1 0.770105 0.24756 0.165783
138 1 0.688041 0.318513 0.0376375
129 1 0.634316 0.330475 0.18366
227 1 0.899733 0.32527 0.198525
308 2 0.796885 0.362631 0.102346
109 1 0.853495 0.0727121 0.125049
171 1 0.538062 0.234697 0.110533
71 1 0.509663 0.0976756 0.165116
257 1 0.675661 0.0651851 0.37442
174 1 0.628962 0.221373 0.39113
22 1 0.523961 0.12202 0.491748
315 2 0.941713 0.291427 0.324812
78 1 0.961508 0.192617 0.438511
87 1 0.789069 0.476941 0.475903
41 1 0.512801 0.287322 0.264522
272 1 0.808622 0.15658 0.42806
350 2 0.907826 0.424225 0.488224
126 1 0.766266 0.257163 0.308031
160 1 0.852336 0.303465 0.45829
32 1 0.868378 0.397392 0.346066
235 1 0.935866 0.0333803 0.404692
279 1 0.708049 0.367124 0.417077
236 1 0.548188 0.380221 0.389282
299 2 0.635241 0.321553 0.323627
80 1 0.913005 0.163937 0.291317
6 1 0.533163 0.0959238 0.338792
182 1 0.922226 0.0158804 0.249772
64 1 0.591811 0.484896 0.493599
70 1 0.768592 0.102843 0.263568
209 1 0.995731 0.340496 0.424585
49 1 0.664802 0.494035 0.358009
75 1 0.648254 0.148276 0.672381
46 1 0.689523 0.0876512 0.518945
256 1 0.578597 0.0214702 0.601538
156 1 0.731974 0.0307087 0.648276
3 1 0.888281 0.482584 0.599663
52 1 0.838758 0.0422108 0.536099
224 1 0.849699 0.242498 0.695052
319 2 0.782628 0.138572 0.639105
230 1 0.87407 0.0720514 0.693687
214 1 0.890872 0.178963 0.566871
264 1 0.943894 0.331044 0.577668
317 2 0.634267 0.371837 0.531871
28 1 0.569335 0.261744 0.541968
276 1 0.603466 0.305572 0.709086
306 2 0.721944 0.251598 0.662088
225 1 0.630031 0.442008 0.643288
297 2 0.968199 0.0793648 0.523359
307 2 0.865244 0.368761 0.676546
278 1 0.763686 0.369655 0.593711
117 1 0.965394 0.42457 0.727687
195 1 0.726425 0.239059 0.53191
140 1 0.729191 0.18734 0.92583
341 2 0.542424 0.0144301 0.906173
132 1 0.95112 0.104016 0.983356
152 1 0.875628 0.485328 0.90188
339 2 0.671022 0.209511 0.789493
151 1 0.592686 0.13802 0.860314
289 2 0.613872 0.220068 0.987289
301 2 0.677812 0.0752313 0.979597
91 1 0.981763 0.268681 0.945166
237 1 0.809911 0.0558382 0.94288
63 1 0.930691 0.0399729 0.841097
101 1 0.872965 0.184126 0.864088
170 1 0.736439 0.1062 0.785809
93 1 0.55154 0.398965 0.961366
242 1 0.628585 0.29125 0.880937
31 1 0.896807 0.320704 0.827169
215 1 0.623005 0.44665 0.802503
76 1 0.735052 0.411124 0.909925
329 2 0.781437 0.286603 0.884212
253 1 0.746477 0.31913 0.775149
181 1 0.803545 0.468082 0.774533
66 1 0.84793 0.347884 0.985593
249 1 0.505916 0.244266 0.948341
342 2 0.940373 0.157662 0.761962
267 1 0.586502 0.593947 0.149544
186 1 0.769475 0.777324 0.0626006
291 2 0.647303 0.707774 0.134144
204 1 0.924609 0.79693 0.0117775
261 1 0.738724 0.681872 0.220321
189 1 0.961153 0.55623 0.0731159
228 1 0.728339 0.626429 0.0642922
169 1 0.868711 0.666425 0.127248
232 1 0.98137 0.853645 0.193771
314 2 0.926676 0.73647 0.224063
83 1 0.604042 0.73309 0.248237
187 1 0.536916 0.771596 0.0909001
134 1 0.664633 0.870119 0.165559
161 1 0.857594 0.927154 0.0714279
19 1 0.79449 0.94852 0.207661
145 1 0.812176 0.807142 0.204364
168 1 0.732258 0.52836 0.189272
351 2 0.964977 0.983048 0.124102
303 2 0.603565 0.99881 0.0944955
149 1 0.636628 0.512286 0.012669
136 1 0.502649 0.940367 0.124215
221 1 0.713128 0.649076 0.393535
248 1 0.54127 0.599437 0.310384
294 2 0.71442 0.755179 0.326471
72 1 0.541784 0.867124 0.252831
5 1 0.967465 0.615234 0.276843
220 1 0.815086 0.547734 0.322164
223 1 0.846434 0.715849 0.331607
216 1 0.96426 0.504898 0.401053
165 1 0.945718 0.76077 0.451365
116 1 0.875772 0.632191 0.447644
243 1 0.699714 0.886675 0.320965
104 1 0.580706 0.951813 0.394297
50 1 0.593396 0.776974 0.391666
73 1 0.794988 0.98032 0.397782
67 1 0.778552 0.822374 0.4329
8 1 0.921913 0.866715 0.325584
285 1 0.940648 0.911637 0.485838
105 1 0.567165 0.624231 0.4535
330 2 0.654993 0.603439 0.28324
88 1 0.584685 0.694053 0.631746
154 1 0.702236 0.609067 0.548628
323 2 0.724931 0.729212 0.628
191 1 0.952355 0.793465 0.640244
208 1 0.7038 0.579509 0.69182
48 1 0.985168 0.684138 0.729044
79 1 0.851054 0.631774 0.643157
311 2 0.911538 0.566887 0.742874
309 2 0.592013 0.564598 0.592437
212 1 0.531785 0.900605 0.530869
349 2 0.983905 0.566773 0.507722
34 1 0.88151 0.926962 0.636597
121 1 0.824813 0.742125 0.547084
238 1 0.675594 0.762681 0.517104
56 1 0.505045 0.525614 0.726408
321 2 0.623547 0.900144 0.627213
77 1 0.743493 0.860365 0.63236
313 2 0.8181 0.915192 0.518422
287 1 0.609733 0.819074 0.718043
13 1 0.638521 0.975273 0.73388
251 1 0.845471 0.808946 0.74319
115 1 0.684967 0.929553 0.501506
231 1 0.506653 0.921366 0.685045
123 1 0.990518 0.92559 0.745788
137 1 0.610354 0.641639 0.793286
290 2 0.650927 0.787163 0.99368
200 1 0.714013 0.56855 0.894709
130 1 0.672714 0.993212 0.888219
262 1 0.594405 0.659235 0.972314
16 1 0.845937 0.632313 0.962441
239 1 0.819821 0.618656 0.807258
190 1 0.912024 0.74355 0.867658
155 1 0.728383 0.712143 0.922717
207 1 0.958834 0.597802 0.855533
162 1 0.60786 0.767631 0.873264
98 1 0.728501 0.846038 0.835261
217 1 0.553258 0.910618 0.8363
118 1 0.749149 0.900968 0.974813
305 2 0.8143 0.800526 0.923139
164 1 0.872725 0.922221 0.908412
26 1 0.588491 0.906506 0.992708
61 1 0.727887 0.723056 0.752987
265 1 0.80025 0.965475 0.76318
322 2 0.587462 0.535068 0.896074
ITEM: TIMESTEP
100000
ITEM: NUMBER OF ATOMS
360
ITEM: BOX BOUNDS pp pp pp
0.0000000000000000e+00 6.6943295008216896e+00
0.0000000000000000e+00 6.6943295008216896e+00
0.0000000000000000e+00 6.6943295008216896e+00
ITEM: ATOMS id type xs ys zs
173 1 0.153716 0.0674079 0.10232
55 1 0.0781915 0.237461 0.220479
288 1 0.434374 0.0500734 0.205524
298 2 0.124006 0.478138 0.173195
354 2 0.0577436 0.11409 0.180667
134 1 0.373769 0.0159743 0.0370314
184 1 0.0138537 0.420868 0.219693
58 1 0.435212 0.146955 0.0758055
124 1 0.288901 0.128969 0.181617
74 1 0.0904897 0.195311 0.0170919
9 1 0.197917 0.239692 0.132142
1 1 0.151429 0.47239 0.0528687
205 1 0.0673473 0.335316 0.101852
131 1 0.174318 0.359865 0.224671
41 1 0.493837 0.301885 0.138878
148 1 0.27588 0.392315 0.0963175
317 2 0.420297 0.38847 0.0712325
302 2 0.284874 0.31653 0.207396
24 1 0.383138 0.423398 0.219455
99 1 0.356928 0.251731 0.132923
246 1 0.164542 0.0913605 0.276705
160 1 0.110476 0.237672 0.38734
209 1 0.239785 0.233766 0.296682
253 1 0.0979723 0.0995565 0.439404
172 1 0.284876 0.367839 0.352003
135 1 0.351735 -0.00477474 0.463913
44 1 0.323979 0.249532 0.441438
129 1 0.473629 0.258363 0.395816
247 1 0.367871 0.124788 0.320277
315 2 0.243845 0.0103738 0.374488
324 2 0.498606 0.0988183 0.337514
258 1 0.386203 0.287604 0.279327
254 1 0.440255 0.400958 0.377702
96 1 0.222347 0.494692 0.435767
264 1 0.0496933 0.361872 0.467601
307 2 0.165174 0.34163 0.395272
143 1 0.111292 0.440334 0.348721
297 2 0.334204 0.483656 0.351532
277 1 0.259588 0.121412 0.433129
285 1 0.0180159 0.117008 0.312514
178 1 0.433786 0.140743 0.48565
7 1 0.0654355 0.463671 0.705714
241 1 0.110516 0.124018 0.590818
206 1 0.419688 0.408844 0.655861
47 1 0.232931 0.196405 0.622123
340 2 0.22121 0.0489627 0.534218
76 1 0.034821 0.181269 0.71747
233 1 0.456261 0.309351 0.544436
352 2 0.285206 0.41148 0.638484
147 1 0.347415 0.0669228 0.62055
199 1 0.489713 0.0581312 0.636402
151 1 0.451971 0.203458 0.656724
343 2 0.370403 0.212444 0.552912
346 2 0.163176 0.208966 0.498268
150 1 0.32694 0.292252 0.695747
78 1 0.0564889 0.273782 0.586234
274 1 0.184915 0.358155 0.677771
125 1 0.218311 0.48988 0.744312
159 1 0.121491 0.469105 0.548044
14 1 0.199115 0.327713 0.515115
303 2 0.470694 -0.0037242 0.517281
139 1 0.496172 0.475393 0.525729
342 2 0.235752 0.0731047 0.730962
122 1 0.331932 0.407293 0.503515
185 1 0.0676915 0.177165 0.863318
252 1 0.199866 0.188167 0.786823
128 1 0.17095 0.076112 0.903967
60 1 0.115728 0.0389032 0.765614
282 1 0.370469 0.455991 0.792948
266 1 0.31669 0.0598692 0.881487
318 2 0.301809 0.227581 0.86895
30 1 0.407783 0.168115 0.921636
273 1 0.345999 0.150174 0.763585
250 1 0.162515 0.337455 0.990264
66 1 0.082382 0.458033 0.885371
326 2 0.178512 0.232049 0.898514
110 1 0.229343 0.341632 0.829825
40 1 0.0797845 0.318809 0.782319
167 1 0.0234771 0.304977 0.934364
94 1 0.236882 0.46188 0.906341
249 1 0.39024 0.30756 0.841435
69 1 0.328498 0.282462 0.986169
137 1 0.373596 0.443168 0.971341
43 1 0.475546 0.285381 0.991833
284 1 0.492181 0.0444956 0.950798
92 1 0.253135 0.158553 0.99706
65 1 0.439521 0.847363 0.051169
37 1 0.103042 0.591083 0.10512
232 1 0.0176508 0.728014 0.0285539
200 1 0.501568 0.673867 -0.00276235
327 2 0.182728 0.990257 0.210413
304 2 0.272537 0.520902 0.0362344
18 1 0.245675 0.624938 0.109633
262 1 0.405386 0.508916 0.100393
358 2 0.31517 0.609658 0.214393
127 1 0.366074 0.734125 0.138155
331 2 0.146617 0.690354 0.0475395
280 1 0.233848 0.780705 0.107274
357 2 0.174325 0.661944 0.212794
198 1 0.248901 0.508938 0.201005
2 1 0.0981908 0.761158 0.175522
51 1 0.119395 0.905226 0.124709
33 1 0.279611 0.927001 0.132999
341 2 0.416558 0.940068 0.135334
316 2 0.489865 0.749513 0.126079
183 1 0.478995 0.626333 0.143197
270 1 0.0548095 0.981697 0.241307
144 1 0.3736 0.85485 0.224629
234 1 0.359016 0.622062 0.00534874
328 2 0.385931 0.752639 0.00356205
5 1 0.0979259 0.581153 0.272163
23 1 0.137451 0.637077 0.441612
117 1 0.0147683 0.521352 0.443593
95 1 0.291901 0.867406 0.385739
279 1 0.491309 0.679719 0.403633
11 1 0.301959 0.992273 0.268073
267 1 0.237684 0.603772 0.330778
348 2 0.27794 0.614344 0.458924
113 1 0.403338 0.568456 0.424112
53 1 0.348091 0.729285 0.426198
271 1 0.408171 0.553162 0.266135
292 2 0.405089 0.819948 0.337435
223 1 0.144908 0.717614 0.322759
263 1 0.140042 0.922521 0.392276
192 1 0.285906 0.721531 0.253473
108 1 0.101596 0.79614 0.457888
356 2 0.229781 0.755462 0.404475
153 1 0.446253 0.725392 0.275746
141 1 0.0569851 0.84322 0.288969
219 1 0.443223 0.967908 0.35034
88 1 0.450155 0.848242 0.473057
202 1 0.209474 0.86026 0.250978
349 2 0.150518 0.59334 0.552843
158 1 0.13255 0.593296 0.677526
177 1 0.0728021 0.69311 0.568817
86 1 0.349415 0.567675 0.697443
229 1 0.198358 0.988516 0.638756
89 1 0.427216 0.687123 0.723767
240 1 0.262016 0.543096 0.57379
225 1 0.484084 0.563511 0.646037
248 1 0.365255 0.64928 0.56378
133 1 0.224148 0.746005 0.536481
312 2 0.328405 0.825058 0.517083
119 1 0.23454 0.89622 0.517533
226 1 0.0925616 0.968101 0.540459
344 2 0.193763 0.896154 0.727693
97 1 0.123852 0.834577 0.618985
114 1 0.290805 0.818595 0.658405
256 1 0.429542 0.77687 0.605865
244 1 0.383373 0.921072 0.582588
245 1 0.0780158 0.724485 0.723672
310 2 0.377269 0.513488 0.568693
157 1 0.264453 0.683603 0.683966
337 2 0.486401 0.609611 0.526215
81 1 0.329283 0.956547 0.74055
188 1 0.110272 0.590952 0.823853
103 1 0.124141 0.714241 0.899317
90 1 0.0378525 0.60075 0.964848
334 2 0.49341 0.705988 0.830165
212 1 0.433714 0.846247 0.761033
179 1 0.144817 0.826036 0.997592
336 2 0.250685 0.715487 0.966029
193 1 0.413566 0.92483 0.904726
56 1 0.281743 0.595079 0.835718
155 1 0.435416 0.585105 0.870918
203 1 0.360302 0.731368 0.848146
136 1 0.243468 0.963678 0.998502
59 1 0.222872 0.784863 0.81499
194 1 0.0745987 0.955121 0.991815
283 1 0.219605 0.944215 0.844749
281 1 0.208278 0.593113 0.966176
4 1 0.078606 0.895364 0.759044
332 2 0.325678 0.865351 0.830163
309 2 0.471658 0.539531 0.980654
176 1 0.297257 0.828851 0.955686