ITEM: TIMESTEP
0
ITEM: NUMBER OF ATOMS
360
ITEM: BOX BOUNDS pp pp pp
0.0000000000000000e+00 6.6943295008216896e+00
0.0000000000000000e+00 6.6943295008216896e+00
0.0000000000000000e+00 6.6943295008216896e+00
ITEM: ATOMS id type xs ys zs
9 1 0.234671 0.185963 0.164714
270 1 0.101674 0.114219 0.18166
118 1 0.0650717 0.172652 0.0495399
134 1 0.235012 0.129556 0.00943607
74 1 0.122733 0.0240493 0.066833
92 1 0.231189 0.0404024 0.16206
128 1 0.447329 0.14696 0.096467
299 2 0.343155 0.0789881 0.137073
58 1 0.429559 0.0910454 0.222895
30 1 0.349548 0.248265 0.0316242
81 1 0.373256 0.0519513 0.0117655
281 1 0.244836 0.342386 0.0935385
37 1 0.135436 0.455682 0.153349
94 1 0.114417 0.289728 0.1741
66 1 0.0464185 0.353909 0.0348045
205 1 0.237421 0.475077 0.249416
254 1 0.36331 0.250688 0.188362
24 1 0.488312 0.342254 0.106308
99 1 0.369132 0.420851 0.173858
198 1 0.358211 0.415271 0.0047311
263 1 0.0386512 0.15296 0.483784
277 1 0.185962 0.171493 0.405793
51 1 0.0652854 0.0848888 0.339985
124 1 0.202034 0.0330986 0.340298
209 1 0.0800101 0.233635 0.307981
315 2 0.178492 0.152995 0.2775
95 1 0.197071 0.0390482 0.486943
247 1 0.323517 0.13219 0.441895
129 1 0.311563 0.132892 0.294864
269 1 0.455895 0.0884411 0.378674
292 2 0.284573 0.230628 0.369181
172 1 0.412985 0.238891 0.336684
264 1 0.0977995 0.391541 0.302688
55 1 0.0515411 0.419047 0.466578
14 1 0.2164 0.360319 0.42089
160 1 0.247859 0.315795 0.280572
258 1 0.324143 0.487563 0.472373
271 1 0.48596 0.377226 0.260371
233 1 0.42896 0.328557 0.455038
297 2 0.459778 0.496129 0.271672
183 1 0.353444 0.400321 0.337473
214 1 0.0276528 0.103714 0.631495
44 1 0.208691 0.156986 0.582137
150 1 0.157308 0.20227 0.721214
346 2 0.091446 0.211493 0.603343
121 1 0.00352883 0.233075 0.719077
78 1 0.153208 0.0295887 0.668211
47 1 0.378063 0.10674 0.585424
229 1 0.487397 0.00777833 0.523322
273 1 0.439117 0.188872 0.744917
110 1 0.292252 0.12469 0.713926
35 1 0.0246661 0.419842 0.61607
40 1 0.139103 0.332064 0.651646
345 2 0.115167 0.445049 0.705956
31 1 0.244566 0.429648 0.692362
96 1 0.167495 0.470683 0.544995
343 2 0.241458 0.354683 0.567126
184 1 0.128653 0.276423 0.502644
21 1 0.404075 0.272274 0.598916
335 2 0.463257 0.446968 0.502024
206 1 0.278014 0.277054 0.673594
151 1 0.375681 0.424374 0.616191
274 1 0.293779 0.259401 0.500979
93 1 0.489379 0.349026 0.68616
283 1 0.141305 0.0629991 0.913421
188 1 0.228667 0.179778 0.863398
111 1 0.0747423 0.203885 0.850236
342 2 0.190681 0.0679739 0.796505
326 2 0.0257599 0.0296018 0.978189
76 1 0.0421362 0.0663376 0.780758
147 1 0.297409 0.0416611 0.878307
69 1 0.383876 0.167339 0.906113
302 2 0.320392 0.240216 0.793563
284 1 0.461481 0.0534135 0.823975
169 1 0.0141859 0.390491 0.753663
249 1 0.166748 0.437345 0.987057
301 2 0.0863374 0.371406 0.881948
56 1 0.185533 0.323627 0.810635
245 1 0.173213 0.277679 0.965593
350 2 0.0202689 0.250386 0.956948
207 1 0.133487 0.47109 0.824267
60 1 0.313348 0.315516 0.903327
275 1 0.272562 0.445879 0.86867
287 1 0.467349 0.27316 0.867244
1 1 0.371131 0.358294 0.767713
339 2 0.420079 0.443842 0.893344
357 2 0.178723 0.599615 0.0823204
27 1 0.0704082 0.639995 0.155354
280 1 0.181153 0.741147 0.138863
204 1 0.0636356 0.539363 0.0449947
349 2 0.0165331 0.675107 0.00907918
141 1 0.228852 0.626655 0.228847
127 1 0.43542 0.667957 0.0535116
234 1 0.294992 0.651223 0.0940511
337 2 0.40442 0.520231 0.074709
261 1 0.407026 0.728779 0.215592
18 1 0.385197 0.575501 0.195266
90 1 0.264869 0.507201 0.0996385
80 1 0.125171 0.941182 0.217401
173 1 0.194998 0.893646 0.0925132
327 2 0.0791446 0.840619 0.159623
331 2 0.121913 0.80183 0.0215783
232 1 0.022877 0.762983 0.0952086
179 1 0.245613 0.789759 0.00154225
71 1 0.466954 0.876615 0.212873
333 2 0.472912 0.894346 0.0568207
83 1 0.379322 0.795321 0.0900661
33 1 0.275914 0.84811 0.20765
136 1 0.358729 0.946757 0.122958
328 2 0.251018 0.995828 0.0414023
23 1 0.16553 0.66267 0.36446
131 1 0.0816979 0.547005 0.274219
197 1 0.020639 0.561425 0.423592
107 1 0.0241262 0.690274 0.316353
143 1 0.171909 0.504417 0.392534
7 1 0.0858556 0.70026 0.486214
5 1 0.310639 0.712146 0.325271
267 1 0.313858 0.567228 0.349137
192 1 0.464618 0.658986 0.397333
113 1 0.254249 0.612931 0.498258
54 1 0.462844 0.506785 0.394962
105 1 0.0287724 0.814827 0.413011
82 1 0.16593 0.790223 0.283378
53 1 0.0943508 0.947207 0.388083
165 1 0.242627 0.881115 0.359579
312 2 0.16609 0.781976 0.421143
341 2 0.245652 0.950829 0.251706
123 1 0.00894681 0.855919 0.267238
11 1 0.364634 0.968814 0.283915
178 1 0.489466 0.940191 0.381351
144 1 0.396529 0.824588 0.376135
223 1 0.295684 0.753888 0.472986
288 1 0.35534 0.982188 0.448061
117 1 0.176621 0.561914 0.669105
125 1 0.190543 0.703239 0.592638
64 1 0.0243228 0.570235 0.577533
133 1 0.088067 0.694012 0.710261
152 1 0.0304352 0.553891 0.73925
352 2 0.116393 0.579365 0.500151
196 1 0.424673 0.595473 0.524866
157 1 0.342825 0.701745 0.611441
240 1 0.348269 0.572984 0.677251
296 2 0.276279 0.505995 0.596458
158 1 0.251573 0.712656 0.742132
213 1 0.48215 0.643789 0.675472
108 1 0.0410076 0.980078 0.517564
119 1 0.052944 0.832734 0.606905
114 1 0.192323 0.851409 0.694093
159 1 0.179415 0.874823 0.522794
212 1 0.410306 0.982145 0.693478
88 1 0.403071 0.86761 0.56171
135 1 0.284271 0.984506 0.59927
203 1 0.35921 0.830198 0.704513
358 2 0.425476 0.757674 0.515149
290 2 0.274257 0.812418 0.593347
262 1 0.159211 0.61348 0.823161
334 2 0.134625 0.559063 0.930362
336 2 0.245847 0.696419 0.890767
103 1 0.143669 0.673888 0.974085
39 1 0.0107511 0.601286 0.897246
348 2 0.248693 0.537578 0.774365
155 1 0.263925 0.580755 0.953537
106 1 0.334719 0.615407 0.82017
200 1 0.364704 0.717761 0.929868
148 1 0.407527 0.566026 0.946954
304 2 0.484305 0.650344 0.889522
225 1 0.443371 0.522281 0.775299
86 1 0.445861 0.748968 0.782132
190 1 0.0510455 0.889449 0.937461
59 1 0.152567 0.782091 0.857822
4 1 0.116173 0.936836 0.794077
193 1 0.200473 0.927543 0.936742
210 1 0.0172894 0.759245 0.904315
344 2 0.0647749 0.809367 0.756086
16 1 0.48967 0.79086 0.94578
97 1 0.294264 0.829423 0.845067
162 1 0.354635 0.905928 0.969079
65 1 0.435011 0.901825 0.824108
226 1 0.269078 0.963746 0.756153
171 1 0.493569 0.959 0.954786
41 1 0.590157 0.174864 0.0931177
306 2 0.562639 0.101129 0.186602
201 1 0.524829 0.223826 0.228811
72 1 0.66325 0.0228777 0.140242
219 1 0.668315 0.158753 0.234075
161 1 0.500648 0.00842195 0.111589
318 2 0.528074 0.075522 0.0115243
250 1 0.894903 0.209678 0.0110905
211 1 0.978807 0.00822558 0.228834
167 1 0.94197 0.0770629 0.0835001
189 1 0.770977 0.208349 0.134088
102 1 0.799375 0.0387877 0.182692
237 1 0.79953 0.0808071 0.0125426
138 1 0.970398 0.246537 0.137275
100 1 0.900684 0.148342 0.239802
215 1 0.713741 0.366331 0.0445428
227 1 0.64615 0.30998 0.171805
308 2 0.733763 0.412914 0.181019
317 2 0.600343 0.413647 0.0774059
153 1 0.513543 0.497448 0.137125
291 2 0.808544 0.286363 0.0490978
19 1 0.901331 0.356252 0.00501918
62 1 0.980978 0.425586 0.160099
91 1 0.848541 0.338419 0.156996
294 2 0.946144 0.473807 0.0463385
163 1 0.806048 0.486661 0.0929138
180 1 0.818678 0.474433 0.24989
324 2 0.569579 0.148683 0.322157
265 1 0.592962 0.0538902 0.401323
195 1 0.669144 0.186065 0.400089
174 1 0.741294 0.0207566 0.453055
104 1 0.504608 0.187565 0.481785
36 1 0.711616 0.0163942 0.304103
285 1 0.791813 0.167102 0.341017
8 1 0.916334 0.083897 0.41288
319 2 0.958747 0.183088 0.350924
42 1 0.86083 0.215692 0.468412
320 2 0.866517 0.011451 0.316549
351 2 0.575648 0.411372 0.413048
38 1 0.546235 0.288442 0.379594
218 1 0.64843 0.411769 0.2961
75 1 0.70033 0.340351 0.437307
354 2 0.640937 0.273734 0.302926
242 1 0.936493 0.31096 0.270738
246 1 0.962265 0.453428 0.311145
307 2 0.75354 0.436684 0.357065
257 1 0.862166 0.370692 0.402404
32 1 0.769308 0.308739 0.275583
216 1 0.779976 0.486962 0.480242
253 1 0.990609 0.295606 0.414788
199 1 0.529639 0.172541 0.633381
244 1 0.647356 0.0542609 0.573888
140 1 0.661607 0.223505 0.532928
300 2 0.683964 0.165093 0.636475
34 1 0.736541 0.0538688 0.732364
176 1 0.558618 0.029128 0.686249
340 2 0.929491 0.147487 0.552657
70 1 0.787684 0.128726 0.581188
360 2 0.903666 0.232776 0.645494
230 1 0.889026 0.110325 0.690488
115 1 0.883987 0.0136679 0.543468
10 1 0.5592 0.351382 0.542532
278 1 0.641555 0.285729 0.675958
79 1 0.658602 0.453126 0.609431
329 2 0.59313 0.410315 0.712957
248 1 0.511023 0.488048 0.614306
3 1 0.729206 0.387074 0.741397
208 1 0.871174 0.323646 0.719737
181 1 0.898169 0.484001 0.690803
241 1 0.987255 0.277348 0.568317
276 1 0.883899 0.406317 0.551531
63 1 0.774842 0.290329 0.610558
325 2 0.787965 0.433678 0.623646
26 1 0.618281 0.01866 0.828377
289 2 0.692755 0.119963 0.876323
149 1 0.551623 0.161994 0.904364
187 1 0.710154 0.201801 0.998537
222 1 0.649995 0.0507973 0.982566
28 1 0.622289 0.162119 0.765501
130 1 0.816719 0.13008 0.874793
224 1 0.971365 0.119729 0.907762
101 1 0.881821 0.00357794 0.812085
311 2 0.89867 0.200367 0.786435
156 1 0.76814 0.216711 0.751111
282 1 0.522898 0.447874 0.982045
260 1 0.624809 0.290024 0.830409
120 1 0.530719 0.416188 0.832099
43 1 0.588332 0.315465 0.973397
231 1 0.661116 0.428845 0.902536
132 1 0.947784 0.303231 0.860479
239 1 0.99136 0.452095 0.926589
168 1 0.867044 0.426059 0.84312
175 1 0.782189 0.302691 0.907826
355 2 0.806829 0.427567 0.966552
309 2 0.527512 0.569269 0.0262996
330 2 0.651595 0.635925 0.114358
49 1 0.666975 0.542452 0.0334866
126 1 0.525975 0.648828 0.176674
25 1 0.664575 0.692262 0.238673
228 1 0.681655 0.521365 0.186281
221 1 0.767986 0.652147 0.0358308
57 1 0.789926 0.624404 0.177102
164 1 0.93006 0.613025 0.0894354
347 2 0.956392 0.715282 0.196366
45 1 0.924145 0.588613 0.247878
109 1 0.642245 0.856498 0.227307
259 1 0.698463 0.762297 0.0943145
61 1 0.609695 0.909727 0.0476483
236 1 0.539534 0.781788 0.107944
286 1 0.996604 0.926819 0.0993449
293 2 0.898178 0.872129 0.184824
235 1 0.870749 0.750398 0.112325
67 1 0.774381 0.891978 0.152984
314 2 0.780609 0.76982 0.198704
332 2 0.861134 0.95353 0.0877758
316 2 0.812917 0.771113 0.00288122
185 1 0.928605 0.82833 0.00589208
87 1 0.71531 0.55326 0.327941
68 1 0.626845 0.681882 0.37767
272 1 0.636832 0.51325 0.45556
139 1 0.562825 0.572996 0.298552
303 2 0.78731 0.669639 0.309223
255 1 0.851341 0.588015 0.386888
73 1 0.763555 0.700954 0.44343
46 1 0.923603 0.704241 0.465546
338 2 0.9198 0.5019 0.468251
243 1 0.729889 0.7869 0.33417
256 1 0.531027 0.767033 0.315833
6 1 0.634859 0.905119 0.383709
279 1 0.536361 0.801626 0.463018
84 1 0.565832 0.994807 0.262232
268 1 0.821085 0.890418 0.30789
52 1 0.942156 0.93358 0.385031
323 2 0.884362 0.831745 0.419816
182 1 0.880897 0.756832 0.279663
13 1 0.763237 0.859047 0.479134
217 1 0.637409 0.688375 0.668671
122 1 0.562883 0.657186 0.515961
85 1 0.711957 0.597707 0.566948
17 1 0.597695 0.545958 0.725422
154 1 0.749359 0.534077 0.699817
15 1 0.792339 0.683491 0.724791
22 1 0.85944 0.573903 0.574021
298 2 0.918955 0.603592 0.68267
238 1 0.804319 0.729311 0.581376
177 1 0.966012 0.705337 0.605171
266 1 0.661022 0.77114 0.550929
89 1 0.514186 0.780905 0.61689
321 2 0.582254 0.784591 0.722486
191 1 0.63021 0.892285 0.685016
305 2 0.719486 0.806405 0.655044
20 1 0.612089 0.912177 0.544178
310 2 0.510705 0.91171 0.624656
170 1 0.759827 0.945258 0.613596
12 1 0.971168 0.970113 0.672251
116 1 0.846849 0.874071 0.704499
356 2 0.938656 0.800734 0.67036
166 1 0.896038 0.846099 0.554619
98 1 0.586433 0.695652 0.819495
252 1 0.573159 0.559057 0.900035
322 2 0.679464 0.637362 0.925201
145 1 0.731256 0.548813 0.853198
295 2 0.684363 0.639005 0.776896
137 1 0.590821 0.682454 0.993283
220 1 0.768882 0.686442 0.867894
50 1 0.865875 0.534908 0.966773
29 1 0.926308 0.719613 0.774333
146 1 0.880475 0.578489 0.805947
202 1 0.896211 0.681853 0.941656
359 2 0.644314 0.917623 0.933616
2 1 0.70464 0.797901 0.777463
48 1 0.689501 0.801446 0.934358
77 1 0.582343 0.851278 0.83737
251 1 0.749329 0.938626 0.841983
313 2 0.533433 0.950913 0.782949
112 1 0.965992 0.881472 0.808364
194 1 0.906977 0.972144 0.967319
353 2 0.999626 0.988459 0.862961
186 1 0.85424 0.819588 0.876016
142 1 0.759329 0.919726 0.998686
ITEM: TIMESTEP
60000
ITEM: NUMBER OF ATOMS
360
ITEM: BOX BOUNDS pp pp pp
0.0000000000000000e+00 6.6943295008216896e+00
0.0000000000000000e+00 6.6943295008216896e+00
0.0000000000000000e+00 6.6943295008216896e+00
ITEM: ATOMS id type xs ys zs
138 1 0.0648151 0.187988 0.17362
118 1 0.214018 0.119285 0.116979
211 1 0.0651369 0.0380716 0.0980365
128 1 0.22065 0.258926 0.194821
245 1 0.390199 0.277636 0.0399862
351 2 0.313563 0.306744 0.137445
234 1 0.349421 0.450816 0.110475
359 2 0.448053 0.0859303 0.143439
171 1 0.34709 0.181645 0.164826
281 1 0.230893 0.251109 0.0431916
97 1 0.345127 0.0104238 0.144132
9 1 0.362048 0.114869 0.0220282
99 1 0.180745 0.412363 0.151135
62 1 0.0289863 0.39903 0.145492
183 1 0.398667 0.354143 0.227375
324 2 0.123924 0.314058 0.101232
94 1 0.253485 0.398797 0.00191233
66 1 0.104387 0.161614 0.0129817
24 1 0.490533 0.254564 0.145907
37 1 0.101116 0.325468 0.258303
254 1 0.140291 0.118687 0.441866
35 1 0.0516611 0.196104 0.335444
274 1 0.193462 0.261576 0.360015
96 1 0.306995 0.070368 0.434835
319 2 0.300967 0.273872 0.291306
271 1 0.407771 0.219097 0.301313
11 1 0.452858 0.0871055 0.406311
354 2 0.0504787 0.323761 0.382106
209 1 0.246916 0.138642 0.291323
54 1 0.483448 0.503942 0.422624
328 2 0.105253 0.0116469 0.389981
21 1 0.265139 0.340124 0.469023
51 1 0.106749 0.0611313 0.264483
135 1 0.396537 0.216796 0.466326
42 1 0.104454 0.257793 0.483583
14 1 0.136118 0.41778 0.394714
160 1 0.257042 0.399131 0.297885
233 1 0.406237 0.344379 0.397183
325 2 0.304827 0.445938 0.394444
92 1 0.379915 0.0664732 0.27891
258 1 0.394684 0.493268 0.289893
338 2 0.106377 0.484488 0.499195
111 1 0.0485256 0.163771 0.582094
69 1 0.194718 0.0847043 0.623658
132 1 0.102792 0.123528 0.728038
40 1 0.153694 0.258398 0.649912
114 1 0.304063 0.00293308 0.720032
113 1 0.262043 0.484364 0.517116
273 1 0.333053 0.302185 0.714136
214 1 0.439355 -0.0022334 0.631782
313 2 0.340245 0.272352 0.591458
172 1 0.390187 0.377695 0.553689
341 2 0.407848 0.02065 0.512211
110 1 0.361194 0.13741 0.598126
206 1 0.424232 0.435644 0.695747
343 2 0.296178 0.405473 0.636316
225 1 0.184551 0.401123 0.724096
346 2 0.054563 0.297984 0.592737
31 1 0.158313 0.382508 0.556732
121 1 0.0446063 0.407822 0.654039
247 1 0.241538 0.195721 0.530067
47 1 0.471784 0.26912 0.633275
56 1 0.0271935 0.268448 0.748734
283 1 0.270551 0.164464 0.735378
344 2 0.389548 0.0972624 0.715721
326 2 0.122754 0.159239 0.866019
78 1 0.196135 0.0484567 0.824674
194 1 0.0730833 0.0455241 0.932296
161 1 0.489157 0.113852 0.941122
163 1 0.054347 0.267246 0.898099
30 1 0.26218 0.155673 0.912082
75 1 0.448097 0.343933 0.81612
282 1 0.404445 0.189381 0.801735
329 2 0.48516 0.472344 0.805999
301 2 0.388918 0.202982 0.934958
60 1 0.172514 0.268135 0.80243
231 1 0.304193 0.300102 0.889261
317 2 0.188848 0.278606 0.926213
198 1 0.172044 0.413855 0.873297
287 1 0.363734 0.0165727 0.897269
93 1 0.325003 0.450336 0.80707
169 1 0.0321655 0.405903 0.811561
120 1 0.397991 0.411024 0.95287
188 1 0.223558 0.0256715 0.984223
204 1 0.0796055 0.402 0.99455
176 1 0.474531 0.0138749 0.797713
357 2 0.115632 0.657749 0.159025
192 1 0.0908315 0.538345 0.094851
155 1 0.200802 0.664994 0.0597703
292 2 0.0123542 0.539217 0.209751
280 1 0.0363438 0.800543 0.243965
293 2 0.0122934 0.895191 0.154836
337 2 0.23612 0.496457 0.0745731
275 1 0.335078 0.568285 0.0138839
90 1 0.253949 0.552674 0.185297
304 2 0.307089 0.650906 0.120267
148 1 0.347706 0.752405 0.19589
165 1 0.418993 0.576526 0.164153
261 1 0.320946 0.755566 0.0345919
16 1 0.460597 0.983682 0.029642
33 1 0.266424 0.884792 0.158513
270 1 0.125358 0.916794 0.210809
232 1 0.0961633 0.774457 0.091313
136 1 0.142746 0.913708 0.0462063
327 2 0.214925 0.80444 0.0761465
80 1 0.188753 0.741276 0.208695
83 1 0.42164 0.865366 0.122979
315 2 0.191822 0.992698 0.136185
236 1 0.460711 0.7056 0.0791939
86 1 0.499964 0.55505 0.00873929
193 1 0.307039 0.908489 0.0165849
143 1 0.0614184 0.565711 0.416122
5 1 0.168627 0.7116 0.408556
205 1 0.228793 0.538826 0.3754
200 1 0.482097 0.752694 0.26257
131 1 0.0665183 0.653733 0.286124
358 2 0.373756 0.804611 0.305796
18 1 0.326624 0.631966 0.300434
223 1 0.46467 0.690055 0.416554
129 1 0.249595 0.980813 0.277926
267 1 0.327968 0.749466 0.408517
178 1 0.246113 0.83819 0.321871
151 1 0.343316 0.608698 0.444949
352 2 0.201099 0.64037 0.287375
53 1 0.104338 0.857963 0.372419
141 1 0.013059 0.716362 0.412237
288 1 0.210876 0.947694 0.433928
144 1 0.413795 0.914638 0.277823
88 1 0.36615 0.918624 0.432037
102 1 -0.00235705 0.953699 0.297038
242 1 0.119699 0.506262 0.25738
177 1 0.2344 0.648736 0.533786
356 2 0.205259 0.631113 0.689021
119 1 0.0828839 0.673621 0.540507
158 1 0.319723 0.677601 0.663527
342 2 0.107529 1.00382 0.648016
181 1 0.00997645 0.531961 0.576137
159 1 0.284407 0.811356 0.540133
1 1 0.281241 0.537474 0.68941
196 1 0.425749 0.711519 0.562016
23 1 0.124327 0.836719 0.518835
79 1 0.400395 0.5379 0.574428
241 1 0.031855 0.896266 0.630659
7 1 0.172286 0.741568 0.637535
152 1 0.199636 0.898196 0.646421
349 2 0.0482206 0.770716 0.609163
340 2 0.263789 0.778428 0.712075
124 1 0.44296 0.860868 0.54803
95 1 0.29185 0.980426 0.561254
89 1 0.358054 0.845911 0.66859
117 1 0.0604915 0.644373 0.687356
39 1 0.151055 0.531936 0.606782
44 1 0.0864316 0.987723 0.518504
348 2 0.0995529 0.531712 0.724401
125 1 0.435466 0.632456 0.732712
262 1 0.198543 0.558979 0.811936
345 2 0.179087 0.648423 0.900668
249 1 0.174779 0.534108 0.974233
210 1 0.203567 0.707686 0.785495
103 1 0.0525042 0.56988 0.857758
226 1 0.464003 0.697579 0.913195
190 1 0.0286225 0.965899 0.784537
296 2 0.311803 0.609472 0.79329
106 1 0.300432 0.670598 0.909569
3 1 0.413689 0.558981 0.876339
179 1 0.354898 0.759625 0.788168
59 1 0.207262 0.789201 0.930802
331 2 0.0778417 0.830002 0.966148
173 1 0.129029 0.909723 0.88985
76 1 0.108562 0.836119 0.752273
146 1 0.0753634 0.722874 0.848576
299 2 0.375293 0.91831 0.782067
133 1 0.254857 0.884686 0.806315
162 1 0.430979 0.869292 0.902523
336 2 0.331021 0.796127 0.906725
302 2 0.171072 0.957026 0.754791
164 1 0.0472307 0.667051 0.995304
334 2 0.0177288 0.540558 0.982078
339 2 0.279548 0.49634 0.911771
147 1 0.48058 0.861604 0.764073
306 2 0.730132 0.30665 0.148475
71 1 0.57223 0.106004 0.112496
350 2 0.97732 0.134248 0.0850724
142 1 0.784049 0.251008 0.0269412
137 1 0.526609 0.465303 0.172924
67 1 0.879057 0.0503701 0.0594477
250 1 0.736005 0.130461 0.118813
36 1 0.814223 0.0715651 0.23631
19 1 0.88229 0.192535 0.131454
91 1 0.986974 0.269766 0.058814
167 1 0.964754 0.0971263 0.227122
55 1 0.937011 0.303568 0.238214
174 1 0.664592 0.0254966 0.221889
41 1 0.638723 0.245504 0.0645049
291 2 0.597618 0.30898 0.169056
228 1 0.676895 0.415066 0.0863826
57 1 0.841203 0.366638 0.129372
294 2 0.922677 0.42634 0.210586
219 1 0.649387 0.201714 0.242232
127 1 0.53235 0.359812 0.0419634
189 1 0.76677 0.496557 0.195097
239 1 0.795895 0.495557 0.0286694
318 2 0.517661 0.198549 0.0363522
237 1 0.793554 0.251672 0.253084
332 2 0.793873 0.127238 0.00311895
104 1 0.624895 0.0855508 0.435928
255 1 0.909856 0.473363 0.448988
264 1 0.996113 0.436281 0.312879
195 1 0.541456 0.214219 0.387511
347 2 0.727523 0.476398 0.338275
246 1 0.904562 0.313381 0.386995
191 1 0.816381 0.234898 0.480966
285 1 0.736237 0.164719 0.361875
360 2 0.888203 0.107693 0.468185
100 1 0.890197 0.160987 0.340879
227 1 0.534996 0.337063 0.283278
257 1 0.740843 0.319342 0.382507
320 2 0.628785 0.306911 0.41873
218 1 0.61218 0.430046 0.382359
10 1 0.743926 0.494743 0.465899
268 1 0.716597 -0.0011134 0.357698
184 1 0.969642 0.205499 0.464157
253 1 0.833165 0.410703 0.298967
265 1 0.672949 0.214843 0.493534
32 1 0.684875 0.380795 0.242933
297 2 0.526509 0.46358 0.304355
277 1 0.987051 0.0506436 0.409407
335 2 0.61451 0.494715 0.487407
201 1 0.520313 0.118066 0.259195
244 1 0.645316 0.0390781 0.593258
28 1 0.697662 0.145334 0.724506
140 1 0.78521 0.239667 0.631814
199 1 0.565028 0.386299 0.731666
289 2 0.761487 0.13255 0.571807
187 1 0.795321 0.0166533 0.674696
300 2 0.982614 0.164358 0.689312
307 2 0.931799 0.433852 0.603609
13 1 0.886252 0.127045 0.587713
12 1 0.978258 0.0384336 0.668827
38 1 0.537682 0.134622 0.541677
208 1 0.88491 0.37684 0.704547
63 1 0.827756 0.367363 0.540716
272 1 0.670545 0.385219 0.518037
251 1 0.634798 0.269488 0.627781
17 1 0.733994 0.404459 0.670535
278 1 0.538062 0.443941 0.580203
284 1 0.5182 0.133045 0.704106
150 1 0.935874 0.271414 0.605642
322 2 0.832321 0.282295 0.740183
216 1 0.530703 0.308317 0.499921
156 1 0.860208 0.13327 0.729995
70 1 0.764585 0.0298235 0.501423
64 1 1.01186 0.370984 0.498126
309 2 0.680475 0.241059 0.915044
149 1 0.611912 0.101541 0.838061
311 2 0.967601 0.357934 0.926651
222 1 0.679599 0.120915 0.969536
153 1 0.522752 0.270072 0.928629
2 1 0.795531 0.19187 0.878492
74 1 0.985001 0.142003 0.824915
130 1 0.918529 0.159662 0.96095
34 1 0.931135 0.00615763 0.897814
353 2 0.883356 0.0300665 0.779098
207 1 0.925126 0.489001 0.907808
49 1 0.67492 0.48183 0.809481
175 1 0.801127 0.402965 0.825038
260 1 0.715989 0.286791 0.787471
43 1 0.699037 0.370918 0.946965
48 1 0.568519 0.234484 0.788609
308 2 0.627457 0.363884 0.829976
213 1 0.551737 0.437207 0.899397
4 1 0.912659 0.285647 0.838719
224 1 0.855204 0.364996 0.962631
170 1 0.767295 0.0429235 0.826949
126 1 0.622653 0.577875 0.121461
330 2 0.526018 0.640029 0.188724
235 1 0.698137 0.718301 0.137792
220 1 0.740098 0.644357 0.0200115
323 2 0.726819 0.613808 0.213987
202 1 0.831396 0.639997 0.134308
215 1 0.931219 0.509042 0.0890399
134 1 0.978139 0.922171 0.0145746
185 1 0.952951 0.780366 0.0227182
180 1 0.889612 0.551172 0.258695
72 1 0.624638 0.959031 0.0774377
259 1 0.522389 0.835132 0.0207051
58 1 0.515638 0.969775 0.18374
256 1 0.584059 0.814682 0.155357
123 1 0.894399 0.953438 0.174703
355 2 0.801705 0.759334 0.0608114
186 1 0.819015 0.88705 0.0633315
286 1 0.912224 0.804411 0.160865
243 1 0.732746 0.868844 0.183323
27 1 0.984182 0.65807 0.131599
298 2 0.743259 0.988591 0.111887
73 1 0.638538 0.608667 0.421828
310 2 0.584605 0.719755 0.386074
139 1 0.617591 0.690539 0.264267
87 1 0.639874 0.542249 0.274487
109 1 0.751768 0.753867 0.283668
314 2 0.963452 0.597017 0.350461
46 1 0.779148 0.594539 0.349361
45 1 0.909969 0.693992 0.27349
68 1 0.623982 0.860097 0.306046
105 1 0.872149 0.74152 0.416583
279 1 0.488955 0.596085 0.305853
316 2 0.794419 0.95299 0.259806
25 1 0.706215 0.755067 0.426916
84 1 0.549645 0.986148 0.343904
20 1 0.649497 0.901293 0.461315
263 1 0.976321 0.882925 0.426331
107 1 0.918216 0.616584 0.492085
6 1 0.492192 0.838752 0.399541
82 1 0.881608 0.849047 0.300092
303 2 0.754505 0.875512 0.353006
8 1 0.822102 0.877508 0.467251
52 1 0.857463 0.997913 0.371077
269 1 0.529027 0.977446 0.501872
276 1 0.680099 0.54479 0.607335
305 2 0.659184 0.669777 0.581129
229 1 0.546186 0.597654 0.553525
248 1 0.550222 0.53548 0.704507
98 1 0.647876 0.641404 0.721012
168 1 0.793721 0.542079 0.741677
217 1 0.582748 0.77525 0.517897
295 2 0.781687 0.631099 0.647808
238 1 0.906397 0.65625 0.650704
122 1 0.543214 0.732755 0.660222
182 1 0.779837 0.758211 0.599122
112 1 0.956464 0.777574 0.732983
312 2 0.734864 0.901332 0.708751
115 1 0.716854 0.906326 0.586847
212 1 0.569779 0.889009 0.627964
266 1 0.671069 0.798674 0.722191
85 1 0.867433 0.895364 0.623596
197 1 0.844608 0.525195 0.592603
108 1 0.932041 0.77846 0.563427
22 1 0.758783 0.636248 0.505974
15 1 0.948991 0.51008 0.726325
26 1 0.627621 0.980318 0.740177
230 1 0.918629 0.987159 0.518706
154 1 0.798315 0.713489 0.739001
252 1 0.564966 0.58851 0.850989
240 1 0.702469 0.704335 0.861996
290 2 0.488268 0.728141 0.795439
203 1 0.827426 0.779601 0.908272
221 1 0.654848 0.527707 0.958264
166 1 0.850296 0.907564 0.800157
145 1 0.790408 0.584743 0.879018
101 1 0.973611 0.846968 0.877701
29 1 0.921969 0.637016 0.804685
321 2 0.939739 0.72022 0.8958
65 1 0.574843 0.798293 0.873808
81 1 0.578795 0.971517 0.917422
333 2 0.866148 0.902333 0.944953
157 1 0.694303 0.88817 0.85424
50 1 0.902438 0.626031 0.981501
77 1 0.591728 0.67318 1.00134
61 1 0.742217 0.981366 0.965207
116 1 0.681126 0.816988 0.994734
ITEM: TIMESTEP
120000
ITEM: NUMBER OF ATOMS
360
ITEM: BOX BOUNDS pp pp pp
0.0000000000000000e+00 6.6943295008216896e+00
0.0000000000000000e+00 6.6943295008216896e+00
0.0000000000000000e+00 6.6943295008216896e+00
ITEM: ATOMS id type xs ys zs
130 1 0.193277 0.165828 0.192419
246 1 0.0435869 0.109214 0.215736
313 2 0.406998 0.367259 0.235688
334 2 0.194469 0.391939 0.0142687
211 1 0.275767 0.29267 0.173479
78 1 0.286184 0.175506 0.0814092
5 1 0.128424 0.360465 0.2472
228 1 0.417131 0.203217 0.163897
41 1 0.489507 0.0732801 0.1914
53 1 0.332126 0.0761382 0.192418
113 1 0.0416179 0.461903 0.142807
55 1 0.282474 0.437131 0.106722
281 1 0.169785 0.255223 0.0293262
35 1 0.0580434 0.238116 0.142289
144 1 0.397609 0.0535579 0.0250131
354 2 0.403096 0.242828 0.0417862
138 1 0.422879 0.375573 0.111425
24 1 0.213552 0.0388561 0.0951108
324 2 0.116165 0.00266442 0.0253599
198 1 0.320986 0.332986 0.00168342
99 1 0.062335 0.373384 0.00925175
277 1 0.0791042 0.0955901 0.369716
129 1 0.167844 0.225364 0.334992
341 2 0.0523015 0.207682 0.419852
186 1 0.178904 0.0217253 0.248703
42 1 0.286095 0.426486 0.465412
79 1 0.327084 0.465844 0.254803
19 1 0.413671 0.0107888 0.321421
271 1 0.282001 0.106141 0.366533
110 1 0.40781 0.124156 0.447977
254 1 0.163558 0.138703 0.486826
73 1 0.0252544 0.447942 0.463057
253 1 0.0214169 0.475511 0.299189
75 1 0.4062 0.274284 0.450872
64 1 0.0956037 0.312756 0.457734
242 1 0.16251 0.424048 0.376149
14 1 -0.00206838 0.220766 0.306415
10 1 0.43364 0.419184 0.365189
283 1 0.265604 0.255157 0.465349
135 1 0.391684 0.190563 0.314416
96 1 0.288599 0.329315 0.329936
346 2 0.0394573 0.34756 0.346361
69 1 0.153651 0.121757 0.655532
44 1 0.0357875 0.184161 0.545547
56 1 0.0368707 0.243086 0.687011
231 1 0.465196 0.405337 0.643625
335 2 0.425819 0.408482 0.514366
342 2 0.0235939 0.103479 0.645179
11 1 0.386188 0.0303356 0.588653
273 1 0.179511 0.34366 0.736695
133 1 0.297018 0.0761266 0.703678
217 1 0.356278 0.186794 0.598416
320 2 0.413026 0.0194847 0.734603
48 1 0.486726 0.260429 0.581754
301 2 0.469536 0.122528 0.602256
339 2 0.24333 0.419092 0.663842
31 1 0.18683 0.264565 0.603957
288 1 0.00666691 0.345507 0.583067
39 1 0.163241 0.420633 0.563326
343 2 0.0759868 0.367012 0.681834
40 1 0.267933 0.217906 0.723619
233 1 0.337921 0.490991 0.612563
300 2 0.40097 0.262272 0.677458
247 1 0.335184 0.330943 0.603582
326 2 0.198353 -0.00929621 0.707485
206 1 0.0939902 0.468709 0.746115
188 1 0.424236 0.146162 0.727839
302 2 0.291924 0.0974282 0.518677
23 1 0.0533493 0.0172651 0.500881
344 2 0.071862 0.171258 0.879324
89 1 0.196333 0.10034 0.812525
156 1 0.0570652 0.106718 0.767438
295 2 0.146419 0.209665 0.7509
234 1 0.426213 0.464419 0.997377
227 1 0.473821 0.316521 0.963749
213 1 0.465128 0.419158 0.84183
315 2 0.332515 0.149195 0.808656
357 2 0.337396 0.403753 0.877627
9 1 0.304955 0.163738 0.931877
66 1 0.154599 0.119866 0.967102
192 1 0.385248 0.262558 0.84845
114 1 0.262521 0.012728 0.955665
287 1 0.461649 0.159708 0.951631
284 1 0.384797 0.0477497 0.853899
30 1 0.20232 0.260484 0.863337
93 1 0.156063 0.419191 0.875751
225 1 0.0578834 0.293555 0.841495
169 1 0.000962489 0.460126 0.897616
210 1 0.253756 0.490024 0.773018
132 1 0.0141817 0.0626561 0.904885
60 1 0.026173 0.219363 0.980295
47 1 0.33618 0.356827 0.753448
336 2 0.375983 0.472924 0.760641
18 1 0.0791647 0.619759 0.158265
264 1 0.160148 0.531953 0.0678304
183 1 0.197805 0.738633 0.12207
270 1 0.348766 0.628228 0.0198413
340 2 0.172434 0.66072 0.228271
171 1 0.256909 0.605913 0.148629
16 1 0.481784 0.922049 0.0434376
275 1 0.392438 0.704026 0.174415
290 2 0.455109 0.723968 0.0575388
330 2 0.403431 0.845215 0.228386
148 1 0.415492 0.535359 0.152682
236 1 0.380882 0.94406 0.154803
193 1 0.0787426 0.981332 0.146788
215 1 0.0137898 0.558139 0.0167113
97 1 0.190118 0.897044 0.0322388
134 1 0.210919 0.873642 0.193727
136 1 0.0678726 0.84055 0.118914
261 1 0.37432 0.816585 0.0610676
317 2 0.308183 0.923936 0.0387893
120 1 0.5071 0.586643 0.0158127
131 1 0.164262 0.527268 0.250622
164 1 0.0910819 0.674702 -0.000948455
194 1 0.00933146 0.938768 0.0214901
45 1 0.142629 0.658471 0.361061
319 2 0.101083 0.539014 0.382269
46 1 0.00835741 0.648981 0.306267
51 1 0.342616 0.974081 0.454302
68 1 0.431346 0.866233 0.389234
7 1 0.182208 0.553429 0.483214
88 1 0.397806 0.754675 0.486368
279 1 0.415831 0.728855 0.334531
139 1 0.448121 0.583675 0.299286
151 1 0.288323 0.672113 0.426139
54 1 0.379499 0.5434 0.437725
303 2 0.322533 0.793449 0.389687
141 1 0.190617 0.822433 0.396598
328 2 0.145145 0.9131 0.302618
280 1 0.0472081 0.90622 0.388693
85 1 0.0389486 0.760047 0.430918
112 1 0.290006 0.912251 0.308867
178 1 0.275902 0.755997 0.258006
347 2 0.265225 0.517256 0.381459
143 1 0.0273383 0.612385 0.455261
205 1 0.289891 0.607297 0.297745
102 1 0.176443 0.990697 0.42045
185 1 0.114336 0.777822 0.261671
84 1 0.507814 0.992147 0.472623
172 1 0.184447 0.547287 0.647541
76 1 0.171589 0.699045 0.696043
105 1 0.190467 0.701079 0.533605
262 1 0.00910835 0.840774 0.672359
356 2 0.0562884 0.739341 0.729103
125 1 0.0416344 0.606617 0.740777
179 1 0.319759 0.625284 0.695422
122 1 0.373772 0.621874 0.558765
329 2 0.431164 0.678868 0.663646
119 1 0.110445 0.839487 0.536611
12 1 0.0907282 0.974206 0.650005
124 1 0.203547 0.869943 0.657517
218 1 0.501587 0.520894 0.537333
267 1 0.327827 0.766768 0.65177
159 1 0.272576 0.836551 0.519308
176 1 0.414046 0.87611 0.57029
212 1 0.452999 0.551047 0.699191
177 1 0.0421593 0.683501 0.600139
196 1 0.349216 0.905368 0.702966
65 1 0.496223 0.78778 0.680382
121 1 0.0337227 0.514944 0.606544
128 1 0.229749 0.996995 0.559665
160 1 0.117389 0.570249 0.894706
158 1 0.137716 0.710582 0.847418
59 1 0.128764 0.848674 0.79077
312 2 0.415864 0.811236 0.816184
333 2 0.472873 0.963901 0.892415
327 2 0.220036 0.614462 0.984386
337 2 0.163669 0.601098 0.771092
108 1 0.281597 0.795062 0.810905
321 2 0.0712307 0.97329 0.789496
146 1 0.277115 0.636869 0.842676
3 1 0.407007 0.721939 0.924206