ITEM: TIMESTEP
0
ITEM: NUMBER OF ATOMS
360
ITEM: BOX BOUNDS pp pp pp
0.0000000000000000e+00 6.6943295008216896e+00
0.0000000000000000e+00 6.6943295008216896e+00
0.0000000000000000e+00 6.6943295008216896e+00
ITEM: ATOMS id type xs ys zs
60 1 0.16609 0.113409 0.100035
216 1 0.23412 0.24761 0.117596
229 1 0.107589 0.24113 0.013091
345 2 0.19387 0.139578 0.214157
6 1 0.0441895 0.210998 0.15131
322 2 0.465844 0.0350126 0.109288
228 1 0.42317 0.0391453 0.216287
58 1 0.433687 0.193137 0.126448
127 1 0.321331 0.0982995 0.0186649
331 2 0.315626 0.0958 0.14468
134 1 0.319039 0.162328 0.243776
305 2 0.229434 0.30797 0.00342717
18 1 0.181588 0.407571 0.156907
347 2 0.0760306 0.344641 0.0917674
234 1 0.0287298 0.379823 0.206779
310 2 0.14655 0.483339 0.249183
55 1 0.135775 0.420188 0.000357512
95 1 0.480527 0.354368 0.0906056
301 2 0.425089 0.440985 0.13755
284 1 0.353751 0.287351 0.0125339
113 1 0.320238 0.467975 0.216327
92 1 0.316376 0.449904 0.0733612
324 2 0.341429 0.327154 0.129179
220 1 0.416718 0.304534 0.226543
96 1 0.269455 0.320155 0.245096
24 1 0.104768 0.246682 0.424709
111 1 0.018272 0.105143 0.407227
53 1 0.0793429 0.0965703 0.259778
132 1 0.164671 0.224473 0.290849
102 1 0.210086 0.122741 0.38499
321 2 0.330206 0.0504538 0.311789
360 2 0.421897 0.20342 0.304069
37 1 0.365921 0.138347 0.394383
309 2 0.281922 0.246523 0.365794
335 2 0.285513 0.0952712 0.482573
230 1 0.473737 0.245167 0.43555
168 1 0.131872 0.365182 0.31569
175 1 0.0215679 0.260709 0.298169
213 1 0.238743 0.473981 0.335309
298 2 0.217301 0.343937 0.402197
119 1 0.0237077 0.389652 0.480719
165 1 0.361541 0.34261 0.364692
304 2 0.420725 0.424815 0.275326
91 1 0.303616 0.449573 0.45934
259 1 0.25004 0.255114 0.490632
114 1 0.0820998 0.185474 0.701807
139 1 0.175656 0.0279808 0.69046
164 1 0.241507 0.157122 0.601207
311 2 0.0273052 0.207331 0.525464
211 1 0.210795 0.00432761 0.544678
14 1 0.0951289 0.11314 0.563958
320 2 0.446603 0.222289 0.647573
178 1 0.398014 0.145075 0.55072
40 1 0.471267 0.0207893 0.733122
145 1 0.366106 0.146083 0.712889
9 1 0.238919 0.274044 0.723786
273 1 0.181039 0.385607 0.515497
72 1 0.161074 0.396784 0.680908
1 1 0.0188836 0.39716 0.624507
36 1 0.122162 0.262776 0.584666
337 2 0.0104745 0.280245 0.658666
3 1 0.406459 0.355607 0.526901
128 1 0.463993 0.471412 0.635607
288 1 0.385467 0.33883 0.682543
265 1 0.311374 0.443303 0.609832
319 2 0.329038 0.271548 0.581107
293 2 0.285802 0.389221 0.745377
198 1 0.188571 0.136124 0.789164
28 1 0.0422122 0.195357 0.859902
47 1 0.143057 0.103248 0.940909
153 1 0.0619096 0.0539982 0.811596
312 2 0.27384 0.0848194 0.894127
278 1 0.405899 0.0862347 0.848349
283 1 0.258793 0.204346 0.921981
359 2 0.291593 0.200376 0.798388
214 1 0.471774 0.0833506 0.989074
253 1 0.390761 0.239245 0.873539
238 1 0.491697 0.233571 0.996292
279 1 0.300419 0.00625644 0.779816
246 1 0.158781 0.290375 0.878914
357 2 0.0511148 0.354345 0.916403
197 1 0.0311591 0.482459 0.912093
266 1 0.0514163 0.328981 0.767449
89 1 0.1882 0.446581 0.821791
86 1 0.0582534 0.488995 0.759285
261 1 0.296093 0.363647 0.87966
69 1 0.452375 0.369864 0.933468
16 1 0.475203 0.344997 0.785413
171 1 0.371326 0.47053 0.802572
151 1 0.204979 0.55717 0.0442176
64 1 0.230423 0.584563 0.206916
316 2 0.106929 0.662203 0.112977
199 1 0.0813154 0.522771 0.129827
82 1 0.245774 0.701732 0.107228
281 1 0.0176972 0.734691 0.0606137
125 1 0.056617 0.590485 0.0021797
155 1 0.350063 0.596926 0.0974282
136 1 0.479605 0.581258 0.186779
99 1 0.431017 0.745927 0.184633
286 1 0.305739 0.732965 0.235818
272 1 0.456816 0.521841 0.00348602
342 2 0.182177 0.998057 0.135812
162 1 0.236033 0.849904 0.160232
341 2 0.239212 0.811489 0.0377047
41 1 0.104072 0.84533 0.0685427
257 1 0.0765556 0.943358 0.205687
152 1 0.226173 0.945129 0.0157831
126 1 0.0763683 0.997827 0.041952
327 2 0.035723 0.791197 0.167628
354 2 0.15879 0.861369 0.249412
157 1 0.340879 0.970125 0.11066
252 1 0.361206 0.798336 0.0608729
183 1 0.27069 0.988576 0.240828
38 1 0.423721 0.883588 0.183712
263 1 0.457585 0.891953 0.0243785
51 1 0.120087 0.596746 0.304486
317 2 0.01908 0.616677 0.453012
245 1 0.0700044 0.721816 0.422666
109 1 0.208502 0.73793 0.362405
326 2 0.0137013 0.676018 0.311041
45 1 0.000630973 0.500204 0.274324
205 1 0.107526 0.505891 0.418129
328 2 0.241287 0.741873 0.488523
180 1 0.361649 0.711232 0.364652
338 2 0.396538 0.613673 0.445461
107 1 0.408061 0.543413 0.33202
282 1 0.268867 0.606019 0.404082
7 1 0.435738 0.501588 0.487078
62 1 0.496891 0.664082 0.321092
336 2 0.364361 0.627659 0.251528
255 1 0.053846 0.875297 0.355122
242 1 0.162636 0.984247 0.337972
112 1 0.173181 0.862257 0.441946
233 1 0.0906456 0.999332 0.470268
271 1 0.110958 0.752778 0.250376
77 1 0.266454 0.863919 0.31343
323 2 0.452021 0.809313 0.362713
184 1 0.284344 0.99234 0.418375
144 1 0.341481 0.842146 0.458008
174 1 0.491402 0.771683 0.484774
172 1 0.403542 0.922821 0.320472
103 1 0.422147 0.996865 0.478029
120 1 0.0325335 0.707698 0.577331
191 1 0.232642 0.691022 0.629749
227 1 0.217233 0.554584 0.706848
75 1 0.0770754 0.617092 0.696985
237 1 0.148347 0.644959 0.51998
25 1 0.11161 0.511657 0.572464
285 1 0.488427 0.61745 0.617039
182 1 0.285418 0.566689 0.554535
179 1 0.365364 0.589111 0.690051
236 1 0.34613 0.696766 0.528102
90 1 0.123936 0.766358 0.684971
158 1 0.120982 0.904682 0.625974
225 1 0.0326321 0.859671 0.509329
325 2 0.142257 0.783431 0.545928
104 1 0.0168806 0.996161 0.650203
303 2 0.43474 0.899678 0.566773
57 1 0.359618 0.994961 0.625358
177 1 0.252286 0.864696 0.566307
123 1 0.426106 0.782352 0.61716
313 2 0.288166 0.783426 0.692588
239 1 0.366474 0.874724 0.73816
193 1 0.497864 0.878641 0.69297
167 1 0.145448 0.711052 0.992869
149 1 0.185437 0.594507 0.901341
243 1 0.241389 0.706544 0.800093
308 2 0.0792663 0.584117 0.837068
188 1 0.101711 0.710024 0.825352
10 1 0.381984 0.72125 0.785566
118 1 0.404955 0.591557 0.881916
85 1 0.300071 0.678924 0.947895
307 2 0.270485 0.560982 0.823883
189 1 0.301401 0.512928 0.929858
344 2 0.424642 0.657788 0.990236
333 2 0.0445623 0.754201 0.916939
218 1 0.16493 0.820093 0.916859
268 1 0.193839 0.9647 0.875294
32 1 0.0604785 0.890031 0.784471
353 2 0.0571867 0.894952 0.969701
270 1 0.208472 0.886263 0.756447
280 1 0.358686 0.977797 0.936969
131 1 0.443968 0.762663 0.929679
48 1 0.320856 0.834084 0.872466
19 1 0.460197 0.909055 0.85766
209 1 0.570533 0.130957 0.143413
121 1 0.586576 0.000307833 0.213782
226 1 0.716484 0.062507 0.113432
231 1 0.730512 0.237472 0.165117
247 1 0.740525 0.180884 0.020182
147 1 0.828043 0.0964015 0.216853
70 1 0.866963 0.181522 0.077318
67 1 0.965502 0.0589877 0.143272
232 1 0.623189 0.279204 0.0435278
274 1 0.703689 0.402612 0.141826
101 1 0.572282 0.27671 0.180693
130 1 0.538426 0.416091 0.213743
4 1 0.895657 0.278063 0.219694
240 1 0.8194 0.490316 0.153277
59 1 0.967152 0.300009 0.0445898
78 1 0.828646 0.341352 0.0877541
346 2 0.976577 0.426465 0.0808217
329 2 0.898413 0.40122 0.21445
12 1 0.675589 0.179456 0.418689
110 1 0.541161 0.119416 0.492004
275 1 0.709671 0.149214 0.282329
202 1 0.542015 0.174604 0.317243
163 1 0.6483 0.0324638 0.433183
11 1 0.500268 0.0386874 0.35056
260 1 0.874556 0.0889396 0.371469
350 2 0.78914 0.247909 0.42576
94 1 0.927968 0.227272 0.399436
224 1 0.750996 0.017097 0.314718
348 2 0.948135 0.140464 0.256213
68 1 0.967627 0.00516679 0.280486
221 1 0.536007 0.389453 0.479646
133 1 0.623516 0.311492 0.377434
249 1 0.671572 0.450599 0.419922
84 1 0.502708 0.349761 0.336456
294 2 0.666103 0.312919 0.254883
306 2 0.974997 0.49364 0.390999
117 1 0.771499 0.446146 0.299741
100 1 0.783316 0.277826 0.308191
201 1 0.842946 0.462339 0.430449
106 1 0.936249 0.365545 0.341831
349 2 0.776068 0.364699 0.386049
49 1 0.669906 0.0687063 0.5976
190 1 0.534768 0.150572 0.652555
154 1 0.734118 0.221076 0.622247
98 1 0.660538 0.130619 0.726175
79 1 0.836892 0.168895 0.519251
204 1 0.967958 0.150442 0.618313
314 2 0.923682 0.0842637 0.722441
135 1 0.82838 0.0918472 0.644898
351 2 0.95006 0.0567063 0.531702
13 1 0.595351 0.429096 0.740806
22 1 0.618564 0.263176 0.521652
56 1 0.740185 0.327349 0.508678
195 1 0.533702 0.311563 0.627545
223 1 0.735781 0.483457 0.555441
334 2 0.647354 0.394587 0.586939
116 1 0.647195 0.282629 0.738761
61 1 0.902703 0.313996 0.509911
46 1 0.754268 0.378346 0.692233
222 1 0.870442 0.278127 0.646582
80 1 0.867943 0.438066 0.593703
297 2 0.94952 0.491242 0.692604
33 1 0.696502 0.231292 0.870434
176 1 0.700992 0.0017117 0.964742
287 1 0.613269 0.135357 0.97123
54 1 0.551781 0.0584328 0.85177
141 1 0.52412 0.195585 0.801607
300 2 0.70112 0.00686438 0.841907
115 1 0.802571 0.150716 0.780176
289 2 0.9472 0.0756633 0.854309
76 1 0.827692 0.0373164 0.876398
290 2 0.815548 0.088473 0.988309
81 1 0.860379 0.187714 0.920143
108 1 0.929781 0.213828 0.761941
23 1 0.97525 0.11159 0.990656
355 2 0.708762 0.483429 0.767333
148 1 0.582433 0.324546 0.885384
31 1 0.503701 0.47394 0.859179
215 1 0.731419 0.33672 0.966265
186 1 0.654394 0.453855 0.92496
358 2 0.554172 0.413973 0.994874
173 1 0.943756 0.30829 0.863381
65 1 0.792851 0.447264 0.86062
2 1 0.904074 0.428207 0.959161
262 1 0.809965 0.310026 0.809066
291 2 0.848536 0.320184 0.943374
156 1 0.912103 0.395988 0.752682
299 2 0.536838 0.599534 0.0787997
185 1 0.670884 0.649304 0.0421382
17 1 0.611476 0.504801 0.0581141
26 1 0.536444 0.715152 0.0548289
264 1 0.605822 0.674387 0.182147
105 1 0.64509 0.541183 0.231195
122 1 0.804986 0.635393 0.118536
318 2 0.871052 0.550909 0.245345
27 1 0.921274 0.555327 0.0617245
97 1 0.984704 0.611868 0.186501
256 1 0.701109 0.775246 0.158944
251 1 0.720275 0.904968 0.0804706
129 1 0.562149 0.856807 0.121283
210 1 0.57396 0.996272 0.0672742
340 2 0.853048 0.847146 0.0259974
39 1 0.851559 0.776825 0.12706
138 1 0.8311 0.933896 0.205521
160 1 0.763219 0.760118 0.0110707
5 1 0.9647 0.878252 0.11443
170 1 0.86222 0.988245 0.0595585
203 1 0.642601 0.632264 0.346319
219 1 0.529542 0.625097 0.472999
267 1 0.541478 0.518105 0.353862
140 1 0.766993 0.730202 0.391453
146 1 0.910241 0.593536 0.358078
166 1 0.768228 0.637508 0.262894
332 2 0.886542 0.676504 0.259078
192 1 0.775488 0.58874 0.440874
137 1 0.902914 0.67202 0.498622
74 1 0.623908 0.769245 0.401191
302 2 0.640031 0.757383 0.259265
181 1 0.562937 0.913276 0.433831
42 1 0.73989 0.843255 0.493492
194 1 0.676881 0.896207 0.251784
295 2 0.693603 0.915147 0.382434
352 2 0.611569 0.979225 0.33041
73 1 0.538023 0.834739 0.269869
161 1 0.809207 0.789017 0.262057
43 1 0.914784 0.750157 0.36181
142 1 0.955696 0.977822 0.428202
187 1 0.826269 0.894296 0.363317
71 1 0.781703 0.986545 0.489891
250 1 0.886837 0.837351 0.495613
217 1 0.947203 0.842232 0.254181
258 1 0.638265 0.569355 0.697016
248 1 0.58622 0.514567 0.547021
50 1 0.581785 0.722331 0.675314
93 1 0.656369 0.640846 0.533728
206 1 0.804801 0.680253 0.745246
292 2 0.772359 0.719008 0.521071
159 1 0.794319 0.635061 0.609618
235 1 0.937869 0.608605 0.652416
169 1 0.954665 0.524226 0.518918
244 1 0.809906 0.520118 0.712024
66 1 0.740778 0.909307 0.621936
8 1 0.529792 0.981348 0.581553
330 2 0.642825 0.961844 0.532052
20 1 0.736041 0.762359 0.640004
44 1 0.608549 0.976284 0.709822
196 1 0.613909 0.829408 0.566717
30 1 0.781307 0.983229 0.739926
150 1 0.845327 0.833602 0.686623
339 2 0.892174 0.766907 0.601765
83 1 0.866857 0.958405 0.605554
124 1 0.985305 0.85233 0.664825
254 1 0.666511 0.576875 0.84371
241 1 0.547554 0.640938 0.914223
21 1 0.691307 0.712702 0.893518
87 1 0.508925 0.604918 0.769788
212 1 0.930313 0.569425 0.793425
315 2 0.895737 0.545405 0.925225
15 1 0.801889 0.601911 0.871752
34 1 0.978796 0.642701 0.894219
200 1 0.967526 0.728915 0.757009
88 1 0.766336 0.522068 0.991108
143 1 0.884577 0.688832 0.99486
356 2 0.534547 0.958035 0.949208
52 1 0.596424 0.819765 0.956919
277 1 0.572302 0.775585 0.807183
35 1 0.731733 0.825919 0.788024
269 1 0.608109 0.918706 0.849523
207 1 0.932803 0.962234 0.768211
343 2 0.942699 0.825472 0.851346
276 1 0.806962 0.886619 0.921139
208 1 0.982469 0.965295 0.911188
29 1 0.950897 0.814729 0.96895
296 2 0.834258 0.895747 0.810087
63 1 0.849359 0.758184 0.866001
ITEM: TIMESTEP
10000
ITEM: NUMBER OF ATOMS
360
ITEM: BOX BOUNDS pp pp pp
0.0000000000000000e+00 6.6943295008216896e+00
0.0000000000000000e+00 6.6943295008216896e+00
0.0000000000000000e+00 6.6943295008216896e+00
ITEM: ATOMS id type xs ys zs
233 1 0.0984519 0.0317899 0.242621
102 1 0.19303 0.129493 0.179259
95 1 0.266937 0.376091 0.126639
6 1 0.0962365 0.0392713 0.0196079
113 1 0.381015 0.460971 0.227042
59 1 0.159103 0.161137 0.0355418
81 1 0.0313728 0.288075 0.0175372
127 1 0.295352 0.227582 0.129015
183 1 0.353541 0.106291 0.18621
214 1 0.437208 0.259724 0.0539038
304 2 0.377263 0.314788 0.174893
298 2 0.0659187 0.410916 0.231213
229 1 0.112484 0.407223 0.111325
132 1 0.144498 0.266452 0.135814
136 1 0.399848 0.421985 0.0762328
67 1 0.028923 0.144401 0.153697
220 1 0.443961 0.21723 0.245447
228 1 0.490847 0.106384 0.114528
60 1 0.244796 0.035237 0.0628728
58 1 0.493483 0.340815 0.16621
47 1 0.358396 0.132683 0.0119813
213 1 0.208583 0.449841 0.2454
259 1 0.189053 0.0775229 0.357807
164 1 0.122234 0.114681 0.473101
36 1 0.020735 0.231353 0.434646
221 1 0.442393 0.274944 0.447189
172 1 0.479592 0.0456525 0.253372
321 2 0.389594 0.117443 0.303598
37 1 0.328676 0.139536 0.438004
335 2 0.188342 0.288323 0.266994
134 1 0.280574 0.185245 0.300063
309 2 0.230802 0.392353 0.37039
178 1 0.171236 0.240924 0.404142
96 1 0.306355 0.330196 0.280329
24 1 0.11048 0.37565 0.347743
255 1 0.0314192 0.090819 0.358402
351 2 0.113186 0.462462 0.462593
175 1 0.0903239 0.207618 0.281325
336 2 0.469619 0.414701 0.431067
84 1 0.462817 0.352553 0.318819
282 1 0.347767 0.444078 0.377441
3 1 0.297405 0.307551 0.432759
323 2 0.421799 0.0335242 0.426524
202 1 0.475725 0.137028 0.407824
91 1 0.246217 0.440326 0.490411
184 1 0.326218 0.00874564 0.337911
211 1 0.196527 0.0231123 0.67452
319 2 0.155549 0.111395 0.604919
114 1 0.0544251 0.192294 0.576692
265 1 0.245263 0.209249 0.544585
57 1 0.309656 0.0647055 0.58202
190 1 0.43151 0.0688139 0.675784
288 1 0.270585 0.156138 0.707633
246 1 0.185053 0.425019 0.724021
103 1 0.477163 0.0680356 0.538572
142 1 0.0626073 0.021517 0.624435
9 1 0.125749 0.283547 0.651839
273 1 0.100283 0.462378 0.609322
195 1 0.414697 0.379593 0.553939
89 1 0.36053 0.447258 0.72328
145 1 0.479566 0.206087 0.710805
230 1 0.390143 0.200814 0.569257
293 2 0.427774 0.315113 0.676459
72 1 0.312943 0.318983 0.636198
312 2 0.0332694 0.37175 0.681511
313 2 0.478122 0.449134 0.648408
198 1 0.102068 0.147775 0.750911
165 1 0.142522 0.3397 0.509307
357 2 0.0727802 0.476473 0.747324
268 1 0.0861774 0.116479 0.898185
283 1 0.232254 0.177698 0.869247
279 1 0.180609 0.0246591 0.815981
353 2 0.196023 0.0731935 0.945323
347 2 0.114295 0.231133 0.932993
284 1 0.330574 0.325296 0.974249
263 1 0.474454 0.0746723 0.951726
278 1 0.377222 0.124227 0.811749
238 1 0.449541 0.254222 0.882952
261 1 0.341722 0.284382 0.776028
301 2 0.460194 0.348718 0.976288
139 1 0.0330441 0.013021 0.766156
253 1 0.263947 0.390379 0.844603
305 2 0.144037 0.433873 0.988421
55 1 0.103284 0.324466 0.798396
92 1 0.27233 0.481395 0.996503
13 1 0.486745 0.369153 0.784087
272 1 0.404952 0.445974 0.894687
216 1 0.181417 0.323028 0.991678
86 1 0.0225123 0.468388 0.965987
197 1 0.143806 0.478835 0.873084
280 1 0.32249 0.0246029 0.915347
199 1 0.261263 0.637227 0.0550401
345 2 0.14101 0.995385 0.133647
252 1 0.400203 0.995852 0.0847959
168 1 0.14803 0.583558 0.162972
346 2 0.226368 0.68247 0.173568
234 1 0.133631 0.578002 0.0013376
316 2 0.0629777 0.760642 0.215363
64 1 0.404922 0.574597 0.0770996
324 2 0.230901 0.508059 0.116615
162 1 0.381089 0.90823 0.21894
129 1 0.448182 0.829765 0.112657
152 1 0.295956 0.877601 0.061281
41 1 0.128548 0.713135 0.0977895
126 1 0.151725 0.86418 0.0767713
53 1 0.111207 0.882364 0.247259
342 2 0.259121 0.765041 0.0787185
271 1 0.236775 0.804462 0.206952
82 1 0.368646 0.71234 0.142845
341 2 0.473172 0.722456 0.0511801
18 1 0.287686 0.568785 0.204088
27 1 0.0145404 0.645245 0.22337
242 1 0.245585 0.981702 0.209512
138 1 0.0257799 0.947605 0.121787
5 1 0.00752195 0.840233 0.00803049
51 1 0.0325992 0.647977 0.384535
45 1 0.0714034 0.51921 0.295854
203 1 0.445585 0.689935 0.390808
182 1 0.229146 0.700294 0.41611
107 1 0.476601 0.543435 0.406379
205 1 0.181668 0.535627 0.393495
310 2 0.197678 0.573129 0.278877
219 1 0.321069 0.586049 0.386192
194 1 0.442107 0.8982 0.36351
144 1 0.323023 0.956718 0.48414
217 1 0.041498 0.940398 0.377857
38 1 0.307966 0.696988 0.282956
112 1 0.19736 0.923967 0.368521
158 1 0.0867599 0.798058 0.458163
354 2 0.174795 0.788409 0.350358
286 1 0.152163 0.696742 0.274044
77 1 0.308646 0.829816 0.352044
62 1 0.43693 0.606471 0.255918
181 1 0.447811 0.76808 0.258188
75 1 0.0186402 0.614353 0.656877
243 1 0.240086 0.685545 0.703047
124 1 0.106149 0.73481 0.745021
237 1 0.146988 0.712028 0.580614
227 1 0.252466 0.534177 0.622359
236 1 0.288234 0.67801 0.563842
179 1 0.417907 0.562382 0.646657
285 1 0.388271 0.729721 0.678781
8 1 0.466033 0.927948 0.529623
339 2 0.0401337 0.784363 0.584443
338 2 0.251476 0.577011 0.49984
14 1 0.151848 0.964383 0.515758
90 1 0.134886 0.862838 0.636308
25 1 0.0815288 0.578613 0.522888
325 2 0.286625 0.789847 0.608042
174 1 0.471345 0.667108 0.539341
303 2 0.238497 0.915139 0.624608
188 1 0.142809 0.581815 0.722202
128 1 0.374639 0.519105 0.514956
123 1 0.359953 0.886136 0.632381
180 1 0.377292 0.789836 0.501263
109 1 0.22387 0.839529 0.510017
149 1 0.169488 0.637916 0.877075
151 1 0.0264304 0.577798 0.850648
239 1 0.416879 0.851644 0.762102
208 1 0.0244068 0.957655 0.90861
87 1 0.484959 0.554921 0.808319
118 1 0.282307 0.55491 0.779797
344 2 0.439053 0.815156 0.875672
191 1 0.342332 0.728189 0.827637
10 1 0.438961 0.903234 0.959605
85 1 0.361291 0.747535 0.987514
189 1 0.337217 0.601673 0.919836
29 1 0.0568189 0.754252 0.887596
328 2 0.214771 0.756702 0.846052
167 1 0.197845 0.767082 0.967176
32 1 0.114977 0.880308 0.814186
218 1 0.192563 0.936541 0.939884
333 2 0.110737 0.854577 0.933336
155 1 0.481629 0.656413 0.948923
48 1 0.312759 0.869011 0.893188
19 1 0.449766 0.989003 0.82929
307 2 0.397901 0.621472 0.769944
281 1 0.00677556 0.655226 0.988659
177 1 0.318385 0.983706 0.757441
270 1 0.246353 0.837928 0.749597
209 1 0.639308 0.164245 0.149203
331 2 0.528907 0.217109 0.147103
322 2 0.608562 0.046052 0.154174
106 1 0.993365 0.284903 0.180799
4 1 0.858364 0.238354 0.239662
329 2 0.738111 0.235572 0.202866
231 1 0.881704 0.122249 0.121505
70 1 0.753585 0.216079 0.072695
287 1 0.639416 0.051655 0.0407712
130 1 0.612636 0.299111 0.244282
232 1 0.648629 0.31852 0.0781707
100 1 0.772218 0.113738 0.213559
215 1 0.66211 0.455335 0.0372038
358 2 0.606276 0.409035 0.175166
274 1 0.762184 0.348818 0.168594
69 1 0.526049 0.495521 0.115632
289 2 0.971197 0.390842 0.0674716
78 1 0.882398 0.29951 0.0899287
291 2 0.760058 0.363889 0.0447195
306 2 0.891925 0.355199 0.229638
2 1 0.963065 0.454204 0.212601
240 1 0.847055 0.478704 0.0864449
76 1 0.799286 0.094273 0.00230873
170 1 0.921287 0.00213547 0.0230983
147 1 0.943065 0.0217641 0.242077
54 1 0.567656 0.208985 0.00755198
275 1 0.755586 0.0810079 0.379577
101 1 0.604747 0.158327 0.317927
11 1 0.655777 0.0235475 0.282585
350 2 0.752324 0.186586 0.432358
267 1 0.545105 0.477793 0.279602
169 1 0.99657 0.474464 0.427817
360 2 0.524286 0.255 0.356408
119 1 0.958772 0.34271 0.336821
111 1 0.904731 0.15708 0.389485
68 1 0.901081 -0.000336017 0.404312
201 1 0.862254 0.29173 0.453775
297 2 0.877017 0.452736 0.465675
17 1 0.689736 0.446256 0.265043
12 1 0.623171 0.100387 0.490481
133 1 0.632796 0.260886 0.431657
294 2 0.591997 0.391818 0.359452
105 1 0.836935 0.428881 0.312821
249 1 0.726512 0.391776 0.413782
117 1 0.74862 0.264677 0.332691
295 2 0.723346 0.0343239 0.488844
348 2 0.961518 0.212921 0.29856
7 1 0.597254 0.387151 0.488349
49 1 0.717678 0.0224049 0.630228
22 1 0.761641 0.171557 0.662165
248 1 0.520537 0.498758 0.545797
110 1 0.598728 0.120487 0.648123
330 2 0.592935 0.00893724 0.57208
254 1 0.587173 0.489798 0.725286
173 1 0.977465 0.268189 0.718766
266 1 0.935562 0.479153 0.695153
311 2 0.926157 0.206759 0.521386
204 1 0.938691 0.130477 0.673911
79 1 0.967255 0.0911189 0.509064
94 1 0.814892 0.140082 0.525107
222 1 0.868688 0.260471 0.619327
171 1 0.561583 0.351091 0.652245
258 1 0.686419 0.453905 0.621961
223 1 0.540208 0.217706 0.559122
46 1 0.768468 0.32843 0.698467
337 2 0.886748 0.363453 0.715627
56 1 0.68202 0.265819 0.579148
80 1 0.826997 0.42289 0.602109
61 1 0.981433 0.379125 0.559535
141 1 0.624565 0.236623 0.743707
244 1 0.793169 0.48863 0.748088
98 1 0.602391 0.0149705 0.777098
116 1 0.690902 0.172107 0.920354
359 2 0.614571 0.259959 0.866023
40 1 0.531686 0.122594 0.828307
356 2 0.596903 0.0801726 0.920816
320 2 0.740323 0.253108 0.828185
30 1 0.708034 0.0397713 0.882163
108 1 0.84221 0.219158 0.774048
65 1 0.717396 0.478409 0.902187
153 1 0.911916 0.0898824 0.856173
115 1 0.856883 0.249489 0.942557
314 2 0.800826 0.139484 0.877366
156 1 0.963396 0.410551 0.834404
16 1 0.825623 0.35856 0.830924
247 1 0.718959 0.325138 0.937027
31 1 0.525482 0.491603 0.96602
148 1 0.57309 0.356183 0.92243
355 2 0.588223 0.463634 0.851662
33 1 0.662506 0.3747 0.794621
262 1 0.881996 0.399432 0.965581
28 1 0.991214 0.244099 0.861765
334 2 0.695682 0.113676 0.76561
23 1 0.980775 0.142318 0.997035
154 1 0.804954 0.0606619 0.752235
264 1 0.559687 0.641897 0.123971
26 1 0.692912 0.722294 0.0466313
185 1 0.702758 0.546313 0.145493
73 1 0.582329 0.767473 0.192181
340 2 0.769896 0.821516 0.0538586
125 1 0.991927 0.544535 0.0964588
160 1 0.74823 0.691021 0.196894
143 1 0.847057 0.732013 0.0174809
122 1 0.877745 0.642442 0.146528
327 2 0.862534 0.771806 0.17297
157 1 0.537314 0.955761 0.0985716
161 1 0.915782 0.866075 0.235684
257 1 0.976878 0.751554 0.126286
166 1 0.809335 0.556294 0.248465
251 1 0.77027 0.848281 0.205135
210 1 0.666477 0.862474 0.097631
226 1 0.754046 0.987776 0.129009
39 1 0.876781 0.870317 0.094845
315 2 0.907241 0.586923 0.00132664
290 2 0.885732 0.986525 0.142051
159 1 0.62848 0.51952 0.415505
224 1 0.801819 0.975145 0.280247
250 1 0.862138 0.705068 0.448565
256 1 0.637217 0.599042 0.282274
93 1 0.601793 0.666709 0.422989
332 2 0.749619 0.758307 0.315202
146 1 0.871471 0.554532 0.39275
74 1 0.53128 0.798702 0.451894
192 1 0.746058 0.651261 0.376234
318 2 0.947173 0.57491 0.284603
326 2 0.931836 0.83404 0.451088
97 1 0.864012 0.693656 0.292397
43 1 0.83571 0.852694 0.378223
140 1 0.644211 0.803521 0.344614
245 1 0.989572 0.777005 0.335976
260 1 0.704366 0.947025 0.404039
352 2 0.688294 0.910409 0.274768
302 2 0.540868 0.689445 0.307537
349 2 0.741922 0.521595 0.359792
163 1 0.545788 0.991096 0.41258
235 1 0.769911 0.511294 0.489122
71 1 0.748343 0.785548 0.496885
121 1 0.558587 0.902667 0.253092
50 1 0.564301 0.658612 0.684727
20 1 0.637246 0.580408 0.560802
104 1 0.993915 0.882771 0.68823
292 2 0.590112 0.719414 0.540377
15 1 0.724629 0.622201 0.701615
225 1 0.882093 0.817979 0.565244
34 1 0.876556 0.635586 0.749708
137 1 0.825524 0.667012 0.604675
83 1 0.804639 0.942442 0.513059
308 2 0.806706 0.546275 0.626662
150 1 0.952384 0.73853 0.686708
35 1 0.671383 0.747676 0.629727
42 1 0.62167 0.885323 0.54095
196 1 0.520025 0.798753 0.624582
300 2 0.635133 0.889667 0.700528
66 1 0.770803 0.858458 0.655611
135 1 0.881923 0.974681 0.640452
1 1 0.918114 0.559199 0.551325
317 2 0.74379 0.652125 0.504594
120 1 0.98195 0.699103 0.531475
187 1 0.983423 0.929759 0.522622
44 1 0.529715 0.943222 0.666572
21 1 0.755316 0.678879 0.880992
206 1 0.633008 0.588148 0.839897
299 2 0.618762 0.696016 0.902044
343 2 0.975022 0.814907 0.801664
277 1 0.67433 0.7655 0.778916
296 2 0.993484 0.676041 0.783165
276 1 0.881734 0.844376 0.913074
200 1 0.906319 0.696493 0.880813
63 1 0.842113 0.803929 0.776007
212 1 0.874011 0.529706 0.896285
193 1 0.567273 0.876985 0.835807
52 1 0.697569 0.811632 0.929126
269 1 0.731748 0.91699 0.777451
131 1 0.604464 0.934519 0.962264
241 1 0.524986 0.730615 0.822124
207 1 0.888133 0.947766 0.81408
186 1 0.629772 0.603715 0.993484
176 1 0.760622 0.936483 0.978855
99 1 0.55896 0.793329 0.994168
88 1 0.769609 0.583287 0.998536
ITEM: TIMESTEP
20000
ITEM: NUMBER OF ATOMS
360
ITEM: BOX BOUNDS pp pp pp
0.0000000000000000e+00 6.6943295008216896e+00
0.0000000000000000e+00 6.6943295008216896e+00
0.0000000000000000e+00 6.6943295008216896e+00
ITEM: ATOMS id type xs ys zs
59 1 0.17179 0.0812798 0.0968579
347 2 0.177125 0.189815 0.0297557
23 1 0.106279 0.149678 0.223695
81 1 0.0606342 0.249012 0.080863
6 1 0.0167151 0.045589 0.0735074
345 2 0.273481 0.149856 0.129464
127 1 0.296876 0.226097 0.0280804
298 2 0.0713217 0.301893 0.211829
102 1 0.407497 0.162197 0.114101
136 1 0.417861 0.307309 0.0651838
96 1 0.322374 0.423881 0.147109
132 1 0.192304 0.260028 0.145454
284 1 0.167494 0.402544 0.109337
216 1 0.0323296 0.424998 0.185628
304 2 0.231319 0.360905 0.208181
233 1 0.0890718 -0.00432284 0.206137
301 2 0.396782 0.373377 0.243766
305 2 0.0526594 0.361663 0.0315153
134 1 0.330464 0.260089 0.223504
324 2 0.203857 0.483912 0.204428
220 1 0.48505 0.274633 0.213693
60 1 0.317286 0.0319533 0.0785359
184 1 0.36716 0.0273522 0.22197
58 1 0.485177 0.436757 0.142852
234 1 0.00217267 0.475628 0.0135388
272 1 0.394929 0.480836 0.0175745
230 1 0.482964 0.421747 0.435671
213 1 0.203659 0.279716 0.311244
175 1 0.223687 0.124631 0.423208
1 1 0.0316446 0.383068 0.442399
321 2 0.39583 0.0595055 0.35418
202 1 0.412775 0.166226 0.433972
37 1 0.425194 0.156437 0.287446
24 1 0.295902 0.251188 0.469498
95 1 0.274721 0.425658 0.293164
169 1 0.111005 0.406161 0.299364
178 1 0.139442 0.262206 0.454126
335 2 0.309601 0.191883 0.341453
84 1 0.427669 0.492531 0.281795
105 1 0.0189658 0.265057 0.346015
255 1 0.0847687 0.106171 0.358605
286 1 0.17606 0.404726 0.465833
113 1 0.328441 0.43252 0.427361
221 1 0.399237 0.303242 0.358244
12 1 0.480928 0.00945135 0.465973
67 1 0.248852 0.118178 0.25533
306 2 0.0439316 0.183057 0.464148
309 2 0.216199 0.442626 0.656357
265 1 0.214983 0.1721 0.567977
114 1 0.0260469 0.187398 0.718515
312 2 0.101056 0.178963 0.601218
173 1 0.185441 0.220942 0.730612
211 1 0.147953 0.0412835 0.665837
91 1 0.435572 0.396153 0.636312
223 1 0.483277 0.0920629 0.715471
141 1 0.48255 0.155764 0.570014
333 2 0.0448677 0.064614 0.724078
111 1 0.104188 0.0865342 0.515761
57 1 0.312593 0.0806809 0.67064
165 1 0.191905 0.317918 0.603244
3 1 0.357753 0.250168 0.601098
9 1 0.302509 0.360088 0.703292
348 2 0.0631132 0.362211 0.555977
273 1 0.136732 0.388344 0.732059
205 1 0.100701 0.469703 0.602014
227 1 0.292726 0.420578 0.570416
336 2 0.402111 0.339892 0.513717
103 1 0.349746 0.083328 0.529421
283 1 0.0223272 0.165246 0.98388
280 1 0.157729 0.0866488 0.803834
47 1 0.175979 0.0926217 0.958901
338 2 0.269608 0.473512 0.903126
261 1 0.240577 0.200053 0.894045
359 2 0.436398 0.11887 0.838977
263 1 0.36299 0.117703 0.946859
288 1 0.312128 0.087144 0.818015
238 1 0.380191 0.262611 0.890426
331 2 0.458727 0.219651 0.998487
319 2 0.429048 0.319488 0.745961
55 1 0.0805617 0.240569 0.85762
118 1 0.225153 0.488816 0.787546
156 1 0.0787928 0.421199 0.88083
253 1 0.157037 0.316834 0.972076
145 1 0.380708 0.406362 0.866708
198 1 0.236061 0.336238 0.834764
214 1 0.291965 0.367214 0.977424
72 1 0.335591 0.224389 0.756279
162 1 0.390615 0.913944 0.110775
82 1 0.45554 0.786396 0.18419
189 1 0.0933999 0.550663 0.124419
41 1 0.172647 0.699044 0.131354
53 1 0.00278395 0.895311 0.0637638
149 1 0.325366 0.707838 0.15743
267 1 0.385542 0.560055 0.149785
328 2 0.150882 0.642973 0.0123491
199 1 0.273244 0.568408 0.244236
87 1 0.26053 0.569285 0.0914491
112 1 0.225614 0.972713 0.184064
191 1 0.120484 0.786749 0.0290861
242 1 0.111278 0.8186 0.200713
126 1 0.149641 0.940181 0.0377676
85 1 0.392726 0.784413 0.0179781
152 1 0.241521 0.8317 0.0973383
316 2 0.0483497 0.668026 0.240046
29 1 0.0167648 0.725155 0.135341
344 2 0.303781 0.900542 0.0106633
354 2 0.00261511 0.884434 0.218465
181 1 0.296505 0.843638 0.226556
129 1 0.486015 0.680296 0.0659725
155 1 0.26515 0.712812 -0.00157711
271 1 0.203907 0.724263 0.286915
45 1 0.215321 0.541723 0.387991
27 1 0.0714166 0.53851 0.431875
144 1 0.410184 0.903985 0.345611
168 1 0.12051 0.563501 0.279865
323 2 0.441031 0.759473 0.344547
107 1 0.452345 0.575926 0.399016
219 1 0.33568 0.689958 0.385712
310 2 0.336967 0.540305 0.360587
163 1 0.431953 0.831427 0.476999
182 1 0.202556 0.709086 0.471493
51 1 0.0281438 0.698162 0.478168
180 1 0.283067 0.824646 0.380985
245 1 0.0742436 0.75872 0.355227
77 1 0.14031 0.891491 0.317303
158 1 0.0694734 0.848463 0.503029
18 1 0.423902 0.657695 0.269281
282 1 0.306935 0.576226 0.486705
259 1 0.27942 0.992823 0.338264
346 2 0.192153 0.851896 0.461421
14 1 0.172124 0.974102 0.443416
25 1 0.0746462 0.617383 0.615655
246 1 0.348494 0.515823 0.705704
236 1 0.231106 0.566625 0.622957
120 1 0.0641641 0.771491 0.649421
303 2 0.0907504 0.968187 0.539449
109 1 0.323606 0.939274 0.491084
243 1 0.346705 0.676635 0.651281
318 2 0.164455 0.567677 0.505273
142 1 0.0170482 0.932683 0.654683
237 1 0.200108 0.711184 0.614907
313 2 0.454522 0.596384 0.741942
89 1 0.43749 0.533377 0.55077
90 1 0.191218 0.908641 0.590144
339 2 0.222234 0.833026 0.71648
285 1 0.305861 0.782717 0.539165
38 1 0.416318 0.68895 0.519847
174 1 0.467138 0.805129 0.634493
190 1 0.425099 0.980594 0.621295
123 1 0.331527 0.87793 0.662183
357 2 0.118327 0.53885 0.704263
325 2 0.412799 0.84603 0.751848
92 1 0.235217 0.591517 0.899252
151 1 0.0879319 0.562238 0.837034
296 2 0.0620469 0.677089 0.755939
239 1 0.390196 0.970937 0.789731
19 1 0.279019 0.990461 0.933957
196 1 0.475262 0.731534 0.762687
104 1 0.128246 0.792142 0.798158
307 2 0.251698 0.740881 0.87621
208 1 0.044918 0.836568 0.910319
241 1 0.351583 0.628099 0.809294
206 1 0.461056 0.537141 0.861615
48 1 0.356658 0.846521 0.883485
342 2 0.398369 0.713658 0.896322
270 1 0.306438 0.761584 0.767374
197 1 0.153085 0.509352 0.989016
167 1 0.133068 0.694854 0.907364
353 2 0.156922 0.982945 0.884303
124 1 0.0880244 0.936021 0.788266
218 1 0.201985 0.868101 0.912895
188 1 0.191998 0.641495 0.748633
252 1 0.432829 0.971754 0.956265