ITEM: TIMESTEP
0
ITEM: NUMBER OF ATOMS
360
ITEM: BOX BOUNDS pp pp pp
0.0000000000000000e+00 6.6943295008216896e+00
0.0000000000000000e+00 6.6943295008216896e+00
0.0000000000000000e+00 6.6943295008216896e+00
ITEM: ATOMS id type xs ys zs
191 1 0.165985 0.155644 0.0524036
291 2 0.0488564 0.149513 0.118458
281 1 0.158998 0.117397 0.207095
76 1 0.0207225 0.0768097 0.0279422
274 1 0.039536 0.244532 0.20501
294 2 0.205291 0.0151902 0.150146
159 1 0.284491 0.153277 0.160746
221 1 0.432509 0.0453366 0.164186
29 1 0.419147 0.191953 0.0957246
189 1 0.306529 0.0284744 0.0723717
296 2 0.405897 0.169264 0.223497
65 1 0.175431 0.287411 0.15181
258 1 0.0640413 0.2705 0.0374347
216 1 0.124354 0.430098 0.129058
332 2 0.220765 0.446419 0.0517466
73 1 0.20293 0.330125 0.0126383
32 1 0.0208814 0.416531 0.00938341
150 1 0.422092 0.426379 0.156387
83 1 0.460149 0.293882 0.220448
41 1 0.330765 0.308745 0.129561
250 1 0.270839 0.447118 0.162538
270 1 0.0607177 0.115302 0.326931
348 2 0.1234 0.198948 0.425621
19 1 0.218261 0.112808 0.360859
43 1 0.00658057 0.246601 0.388974
120 1 0.167136 0.24456 0.303862
277 1 0.0253922 0.110306 0.479929
111 1 0.253899 0.246509 0.449044
356 2 0.372615 0.176227 0.428749
224 1 0.380304 0.0854475 0.32783
153 1 0.474507 0.104672 0.467138
166 1 0.319612 0.0554684 0.471816
127 1 0.333205 0.239357 0.308289
135 1 0.476078 0.214171 0.352149
323 2 0.268455 0.00448051 0.374163
345 2 0.0471569 0.474377 0.471122
255 1 0.0654231 0.378123 0.274011
109 1 0.129941 0.359426 0.414477
190 1 0.20546 0.433213 0.292046
210 1 0.271144 0.432834 0.449931
22 1 0.359636 0.394281 0.283144
314 2 0.269304 0.339726 0.355135
334 2 0.481434 0.365724 0.33961
180 1 0.383273 0.333436 0.419782
316 2 0.484533 0.260898 0.471122
265 1 0.104376 0.11719 0.650644
325 2 0.161165 0.228539 0.666419
74 1 0.194923 0.13426 0.522327
310 2 0.0148989 0.204428 0.624148
220 1 0.227465 0.014204 0.621178
28 1 0.276411 0.173041 0.65604
317 2 0.310932 0.050395 0.718504
161 1 0.393177 0.219115 0.542221
211 1 0.379629 0.0764847 0.609341
182 1 0.431225 0.145222 0.743053
112 1 0.0906169 0.266363 0.524067
133 1 0.025071 0.490353 0.633942
9 1 0.0852311 0.323632 0.668279
25 1 0.152305 0.452506 0.542845
50 1 0.233517 0.298345 0.590096
199 1 0.435094 0.452321 0.696258
11 1 0.382889 0.292702 0.691354
5 1 0.385363 0.387186 0.55532
206 1 0.2893 0.41686 0.675175
140 1 0.171709 0.21986 0.908747
138 1 0.0957642 0.0630367 0.887095
35 1 0.195606 0.0945823 0.771169
338 2 0.220537 0.0135325 0.876668
21 1 0.086644 0.207589 0.772628
78 1 0.424966 0.0831412 0.985055
2 1 0.343851 0.0431284 0.843327
154 1 0.31445 0.204434 0.820656
295 2 0.410202 0.159717 0.884781
55 1 0.281581 0.116277 0.956831
355 2 0.0417421 0.466861 0.868535
247 1 0.111399 0.436513 0.761026
200 1 0.0742465 0.345368 0.890133
123 1 0.202976 0.44254 0.907289
139 1 0.206366 0.308038 0.777413
288 1 0.345576 0.392954 0.820895
129 1 0.368189 0.257152 0.961239
343 2 0.273258 0.319562 0.909814
56 1 0.452362 0.269612 0.822905
143 1 0.492058 0.440612 0.853101
4 1 0.337682 0.415552 0.995158
70 1 0.194588 0.702165 0.0967763
160 1 0.0627274 0.688763 0.175034
283 1 0.197438 0.586367 0.207116
301 2 0.0915221 0.584618 0.123207
215 1 0.125773 0.531296 0.0157933
267 1 0.0561124 0.675782 0.0145715
26 1 0.061805 0.530939 0.249195
287 1 0.273705 0.566451 0.0638805
53 1 0.339129 0.682675 0.169563
205 1 0.482005 0.61474 0.181787
81 1 0.347095 0.538088 0.241901
319 2 0.405996 0.596502 0.0812969
177 1 0.471273 0.503483 0.0279391
69 1 0.36312 0.698181 0.0198737
293 2 0.0253467 0.792518 0.0749241
52 1 0.199287 0.873613 0.191166
121 1 0.126338 0.841242 0.0273172
157 1 0.0750457 0.964115 0.159555
245 1 0.167269 0.997379 0.0244933
280 1 0.29015 0.993497 0.245109
201 1 0.2959 0.841332 0.0789815
253 1 0.427353 0.943129 0.0413925
309 2 0.372256 0.919079 0.156913
249 1 0.433423 0.792025 0.107425
278 1 0.0927062 0.660055 0.321853
27 1 0.165727 0.707465 0.453406
37 1 0.224028 0.722637 0.269529
264 1 0.00313772 0.73324 0.424245
128 1 0.142264 0.531189 0.392431
49 1 0.419014 0.660587 0.316785
17 1 0.2766 0.609273 0.370218
170 1 0.388232 0.620127 0.493513
130 1 0.388077 0.504516 0.39318
305 2 0.498157 0.567622 0.428806
77 1 0.311598 0.744244 0.420617
34 1 0.00770722 0.97153 0.419954
148 1 0.103298 0.843453 0.459808
248 1 0.0838931 0.823483 0.297857
185 1 0.218364 0.876471 0.372108
33 1 0.143219 0.986899 0.29423
23 1 0.166122 0.994866 0.461908
233 1 0.360578 0.914913 0.428226
208 1 0.467723 0.812539 0.383313
40 1 0.436747 0.947862 0.28327
228 1 0.358674 0.818756 0.252914
116 1 0.170739 0.555769 0.667621
279 1 0.137175 0.712196 0.608188
188 1 0.0325767 0.658227 0.709375
14 1 0.0754199 0.594751 0.527925
107 1 0.234656 0.579666 0.520352
179 1 0.476595 0.653869 0.619844
152 1 0.283577 0.723374 0.590541
101 1 0.329688 0.573172 0.634234
298 2 0.347483 0.504747 0.513909
244 1 0.489422 0.510203 0.548865
47 1 0.366504 0.721323 0.717527
357 2 0.15087 0.899453 0.613944
213 1 0.194291 0.821525 0.716764
102 1 0.0529941 0.831742 0.628606
30 1 0.0519675 0.978541 0.581916
137 1 0.0937081 0.963756 0.731953
134 1 0.245653 0.85867 0.527927
18 1 0.413238 0.786641 0.530284
346 2 0.32404 0.94347 0.560826
125 1 0.478205 0.825879 0.674962
115 1 0.333201 0.872623 0.660736
212 1 0.449439 0.94227 0.560486
158 1 0.434204 0.994317 0.724549
61 1 0.102391 0.57908 0.83794
16 1 0.141675 0.737108 0.889574
147 1 0.229137 0.615363 0.925582
44 1 0.206645 0.674677 0.752572
328 2 0.323531 0.648552 0.816549
226 1 0.282643 0.534521 0.784898
239 1 0.441607 0.687223 0.869849
98 1 0.377237 0.555302 0.914751
3 1 0.426858 0.583525 0.768017
38 1 0.0437258 0.808706 0.789714
31 1 0.147685 0.906621 0.88426
359 2 0.234317 0.770188 0.982536
89 1 0.243705 0.950648 0.771515
304 2 0.0554866 0.946828 0.975948
240 1 0.415595 0.827709 0.945069
99 1 0.374888 0.871263 0.800835
60 1 0.292726 0.92084 0.94835
257 1 0.298017 0.755801 0.866405
351 2 0.419524 0.952737 0.898225
354 2 0.476982 0.779293 0.793936
214 1 0.563688 0.0734253 0.059475
333 2 0.577825 0.208245 0.0879612
251 1 0.694206 0.150089 0.0996957
229 1 0.538352 0.158095 0.198061
222 1 0.654553 0.027486 0.198827
113 1 0.731334 0.0253604 0.00835039
347 2 0.784481 0.0393805 0.188403
8 1 0.979511 0.0901722 0.200573
197 1 0.93439 0.213457 0.112389
192 1 0.864976 0.0645389 0.0848603
71 1 0.827028 0.162476 0.198602
266 1 0.57121 0.483138 0.126126
303 2 0.533777 0.401781 0.213358
103 1 0.629003 0.311645 0.158115
286 1 0.721691 0.399963 0.0717533
308 2 0.679049 0.444958 0.192918
1 1 0.508409 0.328762 0.0570849
176 1 0.769694 0.357719 0.219653
175 1 0.869116 0.434125 0.0256596
80 1 0.792889 0.268552 0.0789834
225 1 0.940321 0.366033 0.13683
173 1 0.576875 0.100139 0.343102
75 1 0.697533 0.221078 0.2828
156 1 0.701648 0.150578 0.443088
330 2 0.54263 0.0134122 0.250534
142 1 0.763366 0.0848511 0.314818
331 2 0.942954 0.180623 0.300688
84 1 0.831247 0.210681 0.384457
144 1 0.83999 0.0917172 0.494267
104 1 0.912018 0.0667528 0.354605
349 2 0.999539 0.00286923 0.283018
79 1 0.526611 0.403034 0.44494
297 2 0.56864 0.257787 0.279442
155 1 0.606745 0.268769 0.401762
198 1 0.686598 0.422362 0.428654
39 1 0.628134 0.38558 0.29162
327 2 0.738294 0.304022 0.365382
59 1 0.74194 0.488859 0.299798
51 1 0.513182 0.482078 0.311701
307 2 0.894275 0.310136 0.458901
15 1 0.825521 0.394059 0.396036
58 1 0.904707 0.459945 0.273972
94 1 0.971569 0.400407 0.4044
151 1 0.902804 0.307266 0.279431
263 1 0.773041 0.283943 0.499547
324 2 0.652238 0.143017 0.643478
204 1 0.587558 0.208159 0.532538
259 1 0.710944 0.0489533 0.576814
195 1 0.543732 0.0724379 0.617584
230 1 0.557748 0.223678 0.708046
329 2 0.5555 0.0817989 0.739267
254 1 0.65883 0.00263619 0.718916
341 2 0.591125 0.0678489 0.501413
117 1 0.929878 0.202905 0.720884
300 2 0.797499 0.236144 0.722755
231 1 0.946151 0.0811874 0.616806
57 1 0.835743 0.0579179 0.714107
122 1 0.787891 0.173841 0.617347
126 1 0.922195 0.213642 0.533616
256 1 0.567623 0.381216 0.725179
114 1 0.677989 0.29052 0.631323
146 1 0.642286 0.44801 0.586573
340 2 0.742337 0.418142 0.666558
289 2 0.628116 0.332026 0.510156
181 1 0.521512 0.334655 0.585289
68 1 0.953735 0.36945 0.571495
66 1 0.959499 0.353471 0.749037
273 1 0.871068 0.474186 0.667371
136 1 0.830448 0.324266 0.640148
168 1 0.79184 0.436212 0.545173
108 1 0.644422 0.1387 0.926682
87 1 0.521307 0.2082 0.953837
290 2 0.569975 0.174926 0.826734
312 2 0.622247 0.0291831 0.844528
261 1 0.699456 0.174688 0.766172
45 1 0.504286 0.0670296 0.856351
169 1 0.789991 0.171993 0.956542
236 1 0.763909 0.0557314 0.85308
162 1 0.984533 0.0750032 0.780408
118 1 0.901193 0.064453 0.928633
339 2 0.884153 0.136479 0.822414
209 1 0.98624 0.197002 0.892198
320 2 0.912793 0.172844 0.993877
163 1 0.654521 0.270584 0.995344
299 2 0.719351 0.253745 0.881133
97 1 0.650528 0.465399 0.81884
237 1 0.60952 0.42633 0.967295
184 1 0.610995 0.303259 0.850663
90 1 0.728916 0.333172 0.764881
311 2 0.510374 0.332407 0.923518
318 2 0.845938 0.386129 0.783385
171 1 0.845228 0.269047 0.84207
186 1 0.751419 0.374906 0.914535
217 1 0.917939 0.415901 0.88504
24 1 0.910093 0.295792 0.975296
82 1 0.697252 0.581363 0.108569
183 1 0.620828 0.713016 0.166463
235 1 0.620528 0.570263 0.235128
315 2 0.594686 0.568768 0.0114187
96 1 0.512722 0.669963 0.0337283
105 1 0.758391 0.737813 0.112213
91 1 0.839297 0.607865 0.0411303
335 2 0.818203 0.642843 0.168972
194 1 0.930909 0.610018 0.222793
145 1 0.976831 0.526436 0.107679
285 1 0.924761 0.717592 0.108816
7 1 0.821137 0.502972 0.161028
322 2 0.636198 0.962942 0.0741886
67 1 0.530328 0.936815 0.150919
172 1 0.668776 0.857382 0.165149
165 1 0.571641 0.812662 0.0503138
110 1 0.524325 0.80826 0.241762
219 1 0.716524 0.846718 0.0116272
13 1 0.980043 0.843328 0.178362
218 1 0.793739 0.929647 0.111868
275 1 0.941723 0.940792 0.04172
20 1 0.891694 0.960069 0.219809
282 1 0.841723 0.788406 0.23668
321 2 0.863546 0.818981 0.0864834
86 1 0.627763 0.556507 0.41468
106 1 0.573158 0.689147 0.33151
62 1 0.737783 0.664363 0.272642
88 1 0.698326 0.685556 0.473914
10 1 0.522391 0.682452 0.472026
72 1 0.864481 0.696734 0.364188
12 1 0.802751 0.562015 0.423629
6 1 0.970326 0.557597 0.376168
358 2 0.838646 0.572455 0.300717
342 2 0.911493 0.635543 0.464622
85 1 0.670545 0.99432 0.432652
232 1 0.519772 0.955932 0.430872
119 1 0.603603 0.915391 0.303335
124 1 0.618221 0.819822 0.422588
313 2 0.653022 0.77868 0.290295
149 1 0.748821 0.923722 0.284044
336 2 0.523405 0.838562 0.499657
95 1 0.810551 0.937492 0.43177
292 2 0.969685 0.753245 0.294101
100 1 0.754522 0.801611 0.366344
64 1 0.922753 0.853802 0.354348
268 1 0.61344 0.599155 0.566359
141 1 0.71202 0.7086 0.653356
203 1 0.721468 0.543237 0.675795
223 1 0.568275 0.542214 0.696916
360 2 0.718012 0.543756 0.522464
48 1 0.565552 0.694136 0.741228
164 1 0.962548 0.699932 0.579641
193 1 0.81863 0.613694 0.567031
352 2 0.932037 0.586395 0.637106
260 1 0.932761 0.524359 0.52277
271 1 0.859807 0.66043 0.733382
344 2 0.722451 0.927408 0.63953
241 1 0.590915 0.765258 0.583203
242 1 0.598984 0.930377 0.570575
187 1 0.625605 0.83489 0.717442
350 2 0.539202 0.946186 0.683454
167 1 0.719175 0.847764 0.532948
207 1 0.942148 0.905707 0.7144
306 2 0.946754 0.766389 0.706505
284 1 0.943845 0.860969 0.527492
92 1 0.832406 0.961256 0.587302
246 1 0.830322 0.805911 0.644154
353 2 0.92719 0.998707 0.516578
174 1 0.840934 0.754936 0.501795
131 1 0.549142 0.576412 0.886501
46 1 0.678534 0.675981 0.983616
54 1 0.691116 0.623414 0.826867
63 1 0.736876 0.529343 0.972987
269 1 0.965306 0.530622 0.774689
196 1 0.829592 0.642072 0.890191
326 2 0.931614 0.684871 0.982835
42 1 0.970168 0.549871 0.951842
302 2 0.853433 0.521357 0.925027
238 1 0.980334 0.680339 0.857248
276 1 0.80588 0.503468 0.802052
243 1 0.573737 0.760394 0.896075
178 1 0.718054 0.777421 0.844857
227 1 0.523869 0.905639 0.816764
93 1 0.676629 0.921216 0.860711
234 1 0.560372 0.947941 0.960011
132 1 0.832956 0.916444 0.924552
262 1 0.990079 0.952003 0.869099
337 2 0.87403 0.984564 0.815223
36 1 0.876911 0.802519 0.817204
202 1 0.838448 0.763309 0.971109
272 1 0.987833 0.812685 0.946505
252 1 0.781958 0.910754 0.752952
ITEM: TIMESTEP
3000000
ITEM: NUMBER OF ATOMS
360
ITEM: BOX BOUNDS pp pp pp
0.0000000000000000e+00 6.6943295008216896e+00
0.0000000000000000e+00 6.6943295008216896e+00
0.0000000000000000e+00 6.6943295008216896e+00
ITEM: ATOMS id type xs ys zs
4 1 0.0811254 0.116749 0.0802923
354 2 0.154236 0.101665 0.192559
270 1 0.222356 0.0709755 0.088164
127 1 0.284767 0.198306 0.215435
130 1 0.341584 0.394577 0.0778301
138 1 0.400263 0.020285 0.0229759
29 1 0.434484 0.272611 0.0185132
120 1 0.350377 0.058034 0.197071
78 1 0.347217 0.167693 0.0702945
281 1 0.499172 0.134444 0.120135
104 1 0.0434245 0.204321 0.236503
56 1 0.165543 0.236464 0.127639
73 1 0.0424537 0.43826 0.167281
123 1 0.191397 0.409053 0.129572
302 2 0.181173 0.330926 0.0303727
348 2 0.130615 0.0160515 0.00451493
81 1 0.425085 0.277682 0.166045
24 1 0.283718 0.363537 0.232741
299 2 0.297512 0.285548 0.113785
107 1 0.425996 0.445733 0.218239
66 1 0.056901 0.391682 0.023119
294 2 0.200617 0.178069 0.0127698
317 2 0.486551 0.367921 0.103295
157 1 0.0453575 0.0470821 0.250146
284 1 0.172127 0.102766 0.323956
9 1 0.136469 0.232766 0.394992
34 1 0.0833645 0.111658 0.479167
349 2 0.214327 0.153348 0.465868
298 2 0.0214205 0.272716 0.345048
111 1 0.399709 0.315779 0.316921
166 1 0.253107 0.0348587 0.445332
291 2 0.299379 0.0718071 0.320748
19 1 0.43816 0.22278 0.448887
233 1 0.430281 0.169815 0.281603
135 1 0.30261 0.190466 0.371709
153 1 0.406045 0.0800741 0.407404
255 1 0.336593 0.463844 0.353071
334 2 0.371529 0.34147 0.441792
356 2 0.0823844 0.0138214 0.379285
103 1 0.502646 0.357812 0.424552
94 1 0.230972 0.349249 0.385099
109 1 0.0552313 0.382146 0.388185
25 1 0.161746 0.487894 0.270053
8 1 0.124533 0.328783 0.260469
43 1 0.0241006 0.261233 0.499274
277 1 0.182532 0.0665761 0.592843
28 1 0.170669 0.229956 0.580397
117 1 0.048582 0.155205 0.632294
260 1 0.106448 0.41017 0.676945
244 1 0.418321 0.358249 0.571725
74 1 0.46287 0.189565 0.60779
139 1 0.269056 0.164927 0.676199
211 1 0.332985 0.133676 0.548514
158 1 0.402133 0.0745643 0.687757
314 2 0.452839 0.0680873 0.539368
346 2 0.303851 0.0230824 0.610141
292 2 0.355056 0.261327 0.631214
5 1 0.328811 0.479708 0.655879
305 2 0.197913 0.452005 0.607187
133 1 0.143505 0.374691 0.520971
140 1 0.142721 0.277435 0.740445
112 1 0.291399 0.271624 0.507487
195 1 0.385167 0.345558 0.727364
180 1 0.288691 0.425202 0.505655
72 1 0.480274 0.461191 0.683083
247 1 0.247837 0.338768 0.64698
353 2 0.0529059 0.0393604 0.585341
220 1 0.259496 0.0138765 0.745154
110 1 0.416619 0.50193 0.499821
320 2 0.167953 0.214776 0.874812
31 1 0.0677906 0.103755 0.915648
35 1 0.235528 0.104706 0.896874
162 1 0.148484 0.126683 0.769111
341 2 0.403066 0.275491 0.872934
1 1 0.285798 0.247986 0.813235
182 1 0.436604 0.197823 0.765243
45 1 0.392856 0.153783 0.911344
335 2 0.324103 0.114319 0.789788
99 1 0.358189 -0.00155897 0.871359
55 1 0.279362 0.267639 0.970578
217 1 0.0248065 0.237117 0.833233
2 1 0.09131 0.243954 0.976683
311 2 0.0341471 0.360287 0.889568
26 1 0.160264 0.34938 0.891186
131 1 0.255619 0.4162 0.777583
250 1 0.217371 0.454711 0.987376
79 1 0.343769 0.393587 0.905623
329 2 0.382529 0.455761 0.791994
30 1 0.499951 0.390564 0.821545
269 1 0.114399 0.484572 0.841231
275 1 0.0124594 0.0840663 0.776784
178 1 0.488896 0.419996 0.981327
278 1 0.0926538 0.686141 0.0654435
37 1 0.177094 0.691899 0.207576
318 2 0.0480317 0.562321 0.208793
210 1 0.148297 0.556289 0.122691
6 1 0.00705228 0.545564 0.0490938
52 1 0.0187472 0.685605 0.209479
174 1 0.273256 0.693234 0.0794513
324 2 0.272613 0.562436 0.0757194
205 1 0.401709 0.587957 0.134454
50 1 0.29233 0.509858 0.19407
290 2 0.492293 0.728755 0.223947
201 1 0.32682 0.918307 0.127308
16 1 0.187587 0.826363 0.0911028
191 1 0.108636 0.95565 0.131291
33 1 0.215773 0.982789 0.221132
113 1 0.0113964 0.819467 0.115428
350 2 0.0183021 0.923381 0.221949
286 1 0.495827 0.854543 0.0136497
165 1 0.405436 0.768843 0.128536
160 1 0.111186 0.832674 0.247274
21 1 0.27425 0.817394 0.231673
149 1 0.0781715 0.618525 0.327383
22 1 0.246004 0.612866 0.329601
152 1 0.115647 0.654414 0.477189
7 1 0.0350199 0.756991 0.373535
63 1 0.35936 0.69269 0.24739
86 1 0.395452 0.60857 0.378183
3 1 0.288112 0.680265 0.459961
339 2 0.295927 0.553728 0.455176
248 1 0.327858 0.936697 0.317736
10 1 0.417938 0.760223 0.475
333 2 0.366736 0.800373 0.368775
279 1 0.284196 0.850133 0.444887
102 1 0.198179 0.762589 0.355121
323 2 0.116275 0.834758 0.442171
185 1 0.173273 0.929717 0.363837
13 1 0.0275347 0.901167 0.362682
134 1 0.473837 0.893163 0.414425
116 1 0.160228 0.510881 0.430511
49 1 0.494859 0.603762 0.261556
77 1 0.462644 1.00062 0.285747
223 1 0.439566 0.84223 0.253415
188 1 0.127155 0.669373 0.659828
273 1 0.232069 0.574329 0.563348
42 1 0.18521 0.538688 0.712311
181 1 0.346226 0.778193 0.606201
328 2 0.252766 0.691228 0.599649
199 1 0.385323 0.627662 0.567496
240 1 0.309217 0.642467 0.7056
336 2 0.467445 0.708743 0.617988
97 1 0.472407 0.618158 0.70713
338 2 0.492851 0.868364 0.757781
125 1 0.375643 0.914862 0.714233
326 2 0.202703 0.901429 0.739326
47 1 0.184906 0.782264 0.538953
23 1 0.24523 0.781166 0.716703
213 1 0.104216 0.824515 0.6648
148 1 0.239147 0.905632 0.610204
115 1 0.377765 0.953837 0.533264
325 2 0.475366 0.963326 0.632831
38 1 0.0984238 0.976531 0.695074
344 2 0.499181 0.56724 0.585203
54 1 0.0291978 0.776963 0.519189
143 1 0.080085 0.510907 0.569688
239 1 0.485235 0.840378 0.600407
285 1 -0.00118948 0.639136 0.588858
137 1 0.123565 0.948998 0.50556
91 1 0.0481374 0.619239 0.928465
226 1 0.145657 0.660099 0.824092
128 1 0.219348 0.608941 0.954233
257 1 0.271921 0.869117 0.846862
355 2 0.11722 0.532753 0.986236
44 1 -0.00478997 0.74352 0.800326
183 1 0.360615 0.536623 0.981822
288 1 0.461273 0.543591 0.839183
96 1 0.296298 0.550746 0.833988
101 1 0.307709 0.712608 0.880696
300 2 0.413195 0.658801 0.82638
53 1 0.41514 0.688794 0.986619
228 1 0.238122 0.956278 0.975784
60 1 0.316286 0.827889 0.990331
76 1 0.0792743 0.899685 0.984239
69 1 0.130029 0.813768 0.811163
70 1 0.16673 0.76995 0.944526
232 1 0.430087 0.8456 0.880832
351 2 0.0181133 0.849836 0.867628
89 1 0.130532 0.982105 0.845591
272 1 0.0290207 0.592771 0.771038
88 1 0.40885 0.760215 0.752888
280 1 0.6488 0.0889675 0.0880183
359 2 0.536989 0.0297532 0.0319141
225 1 0.770795 0.491196 0.132847
59 1 0.65657 0.25588 0.218069
310 2 0.532951 0.211902 0.217042
221 1 0.579767 0.247859 0.0723498
17 1 0.902989 0.401609 0.0930782
229 1 0.771472 0.177196 0.16159
173 1 0.806982 0.0435815 0.0798757
163 1 0.971475 0.0459382 0.0213046
176 1 0.922277 0.103854 0.162585
65 1 0.868787 0.178646 0.0377311
208 1 0.785218 0.0503541 0.245042
83 1 0.640327 0.387656 0.106784
358 2 0.578091 0.491689 0.236323
90 1 0.986467 0.258327 0.0974854
105 1 0.776376 0.358208 0.0189611
347 2 0.875187 0.444341 0.224898
154 1 0.803612 0.329416 0.200343
222 1 0.600722 0.091717 0.245237
266 1 0.541017 0.357364 0.234308
172 1 0.689721 0.137824 0.369385
179 1 0.555856 0.0207703 0.389385
357 2 0.641361 0.220655 0.460678
259 1 0.568902 0.227762 0.340235
82 1 0.828985 0.0838933 0.423688
155 1 0.874672 0.207677 0.280166
58 1 0.970556 0.142237 0.375074
196 1 0.687938 0.434685 0.251714
136 1 0.822974 0.406786 0.33705
71 1 0.911919 -0.00385846 0.312211
265 1 0.976037 -0.00202514 0.46189
264 1 0.722749 0.296024 0.359644
331 2 0.616588 0.378957 0.34959
15 1 0.697807 0.45651 0.419188
343 2 0.919606 0.425624 0.424572
190 1 0.98639 0.481339 0.308801
216 1 0.892172 0.293196 0.412469
129 1 0.500624 0.483016 0.34542
151 1 0.76251 0.207047 0.493186
75 1 0.95025 0.342533 0.256473
87 1 0.561963 0.086925 0.657655
251 1 0.654499 0.212581 0.621064
274 1 0.692054 0.0525259 0.500422
141 1 0.797832 0.389246 0.512891
360 2 0.710785 0.110524 0.732542
203 1 0.956898 0.407883 0.542595
340 2 0.596359 0.43852 0.74702
144 1 0.945346 0.0370275 0.656641
126 1 0.795619 0.138931 0.624775
68 1 0.927594 0.126308 0.532122
168 1 0.641728 0.336233 0.509491
330 2 0.525493 0.278446 0.540492
308 2 0.551347 0.403821 0.59297
161 1 0.525832 0.307558 0.688139
204 1 0.674889 0.377583 0.65906
315 2 0.6951 0.456683 0.554698
122 1 0.848752 0.373744 0.677799
215 1 0.961887 0.48334 0.676045
307 2 0.762247 0.295958 0.604022
263 1 0.878757 0.262414 0.571093
11 1 0.755776 0.242755 0.738568
235 1 0.569632 0.474047 0.496626
224 1 0.562652 0.130713 0.503062
84 1 0.72254 -0.00209473 0.659274
209 1 0.993756 0.308469 0.677714
236 1 0.905938 0.187957 0.732272
242 1 0.599126 0.113805 0.938219
198 1 0.609786 0.193558 0.76804
256 1 0.742305 0.129565 0.866974
252 1 0.637068 0.0334448 0.80719
296 2 0.732575 0.0876232 0.993003
197 1 0.900876 0.132194 0.892734
159 1 0.821919 0.0572113 0.762455
295 2 0.524261 0.10675 0.827228
306 2 0.670958 0.234574 0.871203
297 2 0.982773 0.169593 0.982328
114 1 0.605053 0.494769 0.862832
237 1 0.629215 0.343871 0.961759
177 1 0.648666 0.341386 0.801369
57 1 0.947798 0.302432 0.952107
345 2 0.774161 0.35956 0.77721
51 1 0.749453 0.42936 0.884687
261 1 0.929895 0.366871 0.810064
80 1 0.797548 0.277596 0.886375
319 2 0.873742 0.40522 0.916964
32 1 0.970638 0.480077 0.911297
254 1 0.536596 0.246353 0.88838
227 1 0.819736 -0.000104567 0.916482
230 1 0.704834 0.211847 0.997168
304 2 0.505471 0.174822 0.991218
249 1 0.533281 0.659207 0.121863
267 1 0.664593 0.577763 0.174016
98 1 0.902578 0.894553 0.0110324
186 1 0.675309 0.504857 0.00100984
194 1 0.905843 0.940901 0.160553
200 1 0.941088 0.685859 0.0663194
313 2 0.897047 0.691973 0.188762
241 1 0.805052 0.63246 0.124857
171 1 0.930108 0.547101 0.17434
142 1 0.856337 0.797707 0.132895
218 1 0.71334 0.761483 0.125329
322 2 0.607728 0.903855 0.0530592
20 1 0.752577 0.896121 0.0672381
253 1 0.563515 0.814935 0.1515
219 1 0.655231 0.955781 0.178732
258 1 0.786987 0.891541 0.242489
245 1 0.512924 0.967779 0.143427
287 1 0.533253 0.50182 0.116815
327 2 0.677776 0.83544 0.213992
276 1 0.660765 0.658779 0.0294672
312 2 0.540954 0.72076 0.00450699
62 1 0.624451 0.59369 0.347623
303 2 0.617996 0.714174 0.396253
106 1 0.531028 0.628075 0.465722
282 1 0.640873 0.7239 0.262743
145 1 0.755317 0.658895 0.39612
175 1 0.923738 0.630725 0.323506
170 1 0.9908 0.535613 0.45115
12 1 0.798583 0.549454 0.295656
164 1 0.841351 0.527647 0.44748
321 2 0.975047 0.668203 0.442099
309 2 0.616163 0.906285 0.436844
14 1 0.569414 0.793278 0.482133
67 1 0.710901 0.811493 0.381067
40 1 0.594299 0.887671 0.302577
100 1 0.712836 0.971518 0.359813
193 1 0.875373 0.744637 0.41517
342 2 0.958145 0.868357 0.461363
95 1 0.847761 0.896239 0.396018
124 1 0.942187 0.818885 0.257359
246 1 0.795844 0.737371 0.261361
48 1 0.510021 0.748871 0.344496
93 1 0.728427 0.648691 0.665542
202 1 0.58631 0.670781 0.599621
92 1 0.706972 0.738036 0.527813
156 1 0.622426 0.529711 0.641375
271 1 0.795516 0.517108 0.61014
39 1 0.692752 0.575677 0.513038
243 1 0.886687 0.631092 0.694221
289 2 0.819761 0.733435 0.632698
283 1 0.851277 0.664474 0.536502
301 2 0.913973 0.535568 0.555764
167 1 0.560785 0.760797 0.737611
192 1 0.711042 0.810336 0.698598
27 1 0.594522 0.910342 0.687374
316 2 0.615042 0.808246 0.608146
119 1 0.840706 0.995001 0.547679
18 1 0.697433 0.896745 0.53958
169 1 0.843857 0.902303 0.683727
64 1 0.846533 0.838765 0.539316
207 1 0.950834 0.763858 0.647845
61 1 0.994268 0.911141 0.582742
212 1 0.561081 0.952157 0.533321
118 1 0.983557 0.892129 0.740267
108 1 0.965754 0.975527 0.882564
332 2 0.625345 0.616782 0.910536
46 1 0.529113 0.583367 0.980258
150 1 0.623118 0.63269 0.768258
293 2 0.776854 0.616162 0.997171
146 1 0.723761 0.493786 0.74724
121 1 0.811265 0.756635 0.981243
184 1 0.743655 0.588609 0.868438
206 1 0.890576 0.63034 0.911133
262 1 0.82648 0.73346 0.776536
352 2 0.777774 0.885965 0.92667
231 1 0.887772 0.846805 0.856548
36 1 0.701209 0.754215 0.853545
214 1 0.660757 0.973583 0.964836
187 1 0.595193 0.876997 0.848342
238 1 0.746783 0.911123 0.800865
337 2 0.87483 0.953566 0.796901
85 1 0.498405 0.994241 0.770524
268 1 0.864981 0.51206 0.799475
41 1 0.538018 0.721057 0.879078
132 1 0.849374 0.514165 1.00153
234 1 0.644478 0.80763 0.980914
147 1 0.979335 0.75939 0.949144
189 1 0.509499 0.987314 0.91889
ITEM: TIMESTEP
6000000
ITEM: NUMBER OF ATOMS
360
ITEM: BOX BOUNDS pp pp pp
0.0000000000000000e+00 6.6943295008216896e+00
0.0000000000000000e+00 6.6943295008216896e+00
0.0000000000000000e+00 6.6943295008216896e+00
ITEM: ATOMS id type xs ys zs
151 1 0.167256 0.0712424 0.169348
35 1 0.202002 0.225048 0.207866
55 1 0.0394324 0.192015 0.179494
83 1 0.300539 0.322533 0.135662
107 1 0.392376 0.385328 0.246786
108 1 0.0306942 0.0781951 0.0690324
111 1 0.301022 0.126503 0.126991
104 1 0.42139 0.222681 0.082543
223 1 0.451313 0.0575169 0.104236
296 2 0.351624 0.0216863 0.180353
217 1 0.14262 0.213943 0.0588047
120 1 0.0693569 0.334454 0.12471
210 1 0.201626 0.440988 0.119841
315 2 0.167516 0.361775 0.215518
292 2 0.210192 0.345337 0.0374991
305 2 0.348994 0.438054 0.141854
178 1 0.443068 0.388024 0.0818708
269 1 0.314511 0.421482 0.0183312
215 1 0.0272918 0.0323765 0.225797
300 2 0.481591 0.305336 0.173043
19 1 0.394444 0.213851 0.235207
52 1 0.0629236 0.493144 0.0628009
45 1 0.287334 0.246392 -0.00209234
78 1 0.107673 0.465427 0.245934
9 1 0.13993 0.125758 0.308798
48 1 0.234842 0.132719 0.433564
115 1 0.13046 0.256958 0.407311
139 1 0.304961 0.264466 0.491464
28 1 0.447123 0.0633121 0.267973
144 1 0.0969793 0.112161 0.492635
325 2 0.392293 0.0305534 0.385541
259 1 0.386801 0.153301 0.412842
109 1 0.0466579 0.431099 0.394121
301 2 0.160312 0.012633 0.42968
33 1 0.361356 0.475376 0.381776
34 1 0.0567986 0.327029 0.277989
143 1 0.209351 0.390234 0.448494
247 1 -0.00666659 0.179864 0.373692
255 1 0.257309 0.390896 0.303179
135 1 0.269379 0.250434 0.345616
94 1 0.402288 0.318417 0.395169
297 2 0.00417679 0.303715 0.400123
68 1 0.0434919 0.0160103 0.380885
284 1 0.285197 0.0982593 0.28498
298 2 0.494756 0.169087 0.317214
308 2 0.491343 0.356864 0.480396
162 1 0.16862 0.220257 0.569728
211 1 0.074583 0.195675 0.699408
189 1 0.0914459 0.0306471 0.653963
127 1 0.219409 0.0274826 0.549325
343 2 0.430232 0.492887 0.60516
356 2 0.473876 0.133341 0.509243
180 1 0.437014 0.247301 0.570934
257 1 0.229607 0.115268 0.682579
195 1 0.373056 0.196558 0.712224
99 1 0.343453 0.133257 0.5618
314 2 0.292427 0.240035 0.622413
273 1 0.287829 0.499054 0.621824
10 1 0.362325 0.0155463 0.666303
311 2 0.4888 0.235017 0.679088
271 1 0.0884853 0.355431 0.530598
260 1 0.22854 0.35735 0.595239
285 1 0.091808 0.437993 0.693447
294 2 0.108706 0.314329 0.651644
153 1 0.491077 0.0950248 0.64339
116 1 0.365119 0.394459 0.523253
5 1 0.373277 0.347028 0.672861
353 2 0.0172613 0.128642 0.611518
79 1 0.410035 0.478664 0.734558
146 1 0.00926714 0.229878 0.515793
14 1 0.426628 0.0132015 0.51566
31 1 0.209188 0.262884 0.73103
268 1 0.133679 0.0885541 0.814721
317 2 0.43773 0.071814 0.753332
275 1 0.203618 0.0891943 0.966998
350 2 0.0662556 0.14232 0.972367
89 1 0.146799 0.226623 0.904944
2 1 0.0359246 0.0252678 0.92086
281 1 0.369837 0.125516 0.972249
239 1 0.267754 0.154513 0.83802
250 1 0.448392 0.165578 0.842462
57 1 0.0125777 0.170695 0.85618
187 1 0.340085 0.019775 0.82999
182 1 0.472017 0.0306072 0.908343
319 2 0.398893 0.303583 0.980193
91 1 0.0746533 0.319164 0.808284
226 1 0.117081 0.479999 0.840219
26 1 0.0778067 0.37377 0.974137
112 1 0.217024 0.368118 0.894292
1 1 0.339304 0.292701 0.828987
128 1 0.320169 0.475034 0.865043
41 1 0.457929 0.414652 0.889583
254 1 0.504592 0.324913 0.765668
130 1 0.191772 0.502446 0.983669
209 1 0.232349 0.425691 0.745255
113 1 0.18438 0.632657 0.146284
138 1 0.0419278 0.645955 0.082988
321 2 0.0382271 0.558183 0.174481
280 1 0.469982 0.911325 0.0321319
22 1 0.455255 0.523602 0.16101
332 2 0.3025 0.705286 0.0839687
149 1 0.300964 0.573682 0.0733329
53 1 0.37641 0.664254 0.182442
252 1 0.484058 0.923052 0.187039
359 2 0.364292 0.898905 0.114033
270 1 0.164318 0.778023 0.110488
228 1 0.250401 0.941909 0.149808
175 1 0.104609 0.893826 0.189589
220 1 0.134396 0.959463 0.0526067
190 1 0.0289183 0.747183 0.203435
222 1 0.417503 0.776368 0.103578
101 1 0.327916 0.995173 0.0290184
16 1 0.281081 0.838689 0.02952
174 1 0.299975 0.802388 0.198385
299 2 0.49161 0.632232 0.243536
70 1 0.0214633 0.831068 0.0615812
216 1 0.295838 0.519679 0.235228
37 1 0.432342 0.520174 -0.00876527
124 1 0.140901 0.712223 0.401584
122 1 0.0592797 0.585983 0.435488
344 2 0.167986 0.606319 0.472297
7 1 0.207251 0.528703 0.370268
152 1 0.111724 0.629176 0.277974
183 1 0.303995 0.81094 0.368381
25 1 0.409059 0.62461 0.334603
248 1 0.287589 0.648247 0.441465
86 1 0.421916 0.733038 0.459611
196 1 0.342044 0.950163 0.279794
77 1 0.431911 0.90577 0.399375
63 1 0.288992 0.960264 0.431232
333 2 0.33784 0.830046 0.483106
191 1 0.189348 0.980789 0.300141
47 1 0.162439 0.878968 0.405252
201 1 0.169869 0.793542 0.279732
163 1 0.0320643 0.869333 0.322093
286 1 0.439139 0.793129 0.273581
278 1 0.259745 0.661381 0.291478
283 1 0.0435423 0.816719 0.479568
357 2 0.282258 0.511851 0.487909
334 2 0.451054 0.498745 0.287228
131 1 0.158909 0.579074 0.686979
60 1 0.10907 0.726602 0.701289
193 1 0.0980817 0.670436 0.556642
21 1 0.0079188 0.547942 0.593123
165 1 0.294303 0.896837 0.592061
329 2 0.300605 0.551413 0.736943
42 1 0.251674 0.637846 0.585672
102 1 0.482568 0.796862 0.696863
103 1 0.395394 0.611179 0.664025
232 1 0.344483 0.849319 0.738974
354 2 0.414603 0.897946 0.639631
181 1 0.265419 0.691891 0.728502
339 2 0.0221974 0.75702 0.598405
54 1 0.138116 0.877579 0.633691
279 1 0.0735749 0.962356 0.521858
293 2 0.192124 0.912161 0.51906
38 1 0.229683 0.980145 0.733249
320 2 0.237583 0.790285 0.647128
106 1 0.351798 0.752151 0.607936
205 1 0.4641 0.845202 0.54168
160 1 0.220491 0.788839 0.520902
240 1 0.407826 0.580044 0.513591
272 1 0.151272 0.501741 0.547961
312 2 0.388396 0.72101 0.746547
148 1 0.143159 0.718189 0.852226
188 1 0.225059 0.59132 0.84411
75 1 0.0368668 0.599719 0.924532
303 2 0.0955345 0.60279 0.804492
326 2 0.491693 0.530885 0.837626
352 2 0.456462 0.797655 0.977461
200 1 0.171877 0.671608 0.991754
337 2 0.306486 0.566607 0.957357
96 1 0.373495 0.618691 0.827827
125 1 0.288553 0.741828 0.881441