ITEM: TIMESTEP
0
ITEM: NUMBER OF ATOMS
360
ITEM: BOX BOUNDS pp pp pp
0.0000000000000000e+00 6.6943295008216896e+00
0.0000000000000000e+00 6.6943295008216896e+00
0.0000000000000000e+00 6.6943295008216896e+00
ITEM: ATOMS id type xs ys zs
1 1 0 0 0
2 1 0.111572 0.111572 0
3 1 0.111572 0 0.111572
4 1 0 0.111572 0.111572
5 1 0.223144 0 0
8 1 0.223144 0.111572 0.111572
11 1 0 0.223144 0
13 1 0.111572 0.223144 0.111572
15 1 0.223144 0.223144 0
26 1 0 0 0.223144
27 1 0.111572 0.111572 0.223144
28 1 0.223144 0 0.223144
31 1 0 0.223144 0.223144
33 1 0.223144 0.223144 0.223144
6 1 0.334716 0.111572 0
7 1 0.334716 0 0.111572
9 1 0.446289 0 0
10 1 0.446289 0.111572 0.111572
17 1 0.334716 0.223144 0.111572
19 1 0.446289 0.223144 0
29 1 0.334716 0.111572 0.223144
30 1 0.446289 0 0.223144
35 1 0.446289 0.223144 0.223144
12 1 0.111572 0.334716 0
14 1 0 0.334716 0.111572
18 1 0.223144 0.334716 0.111572
21 1 0 0.446289 0
22 1 0.111572 0.446289 0.111572
23 1 0.223144 0.446289 0
32 1 0.111572 0.334716 0.223144
36 1 0 0.446289 0.223144
37 1 0.223144 0.446289 0.223144
16 1 0.334716 0.334716 0
20 1 0.446289 0.334716 0.111572
24 1 0.334716 0.446289 0.111572
25 1 0.446289 0.446289 0
34 1 0.334716 0.334716 0.223144
38 1 0.446289 0.446289 0.223144
39 1 0.111572 0 0.334716
40 1 0 0.111572 0.334716
42 1 0.223144 0.111572 0.334716
44 1 0.111572 0.223144 0.334716
51 1 0 0 0.446289
52 1 0.111572 0.111572 0.446289
53 1 0.223144 0 0.446289
56 1 0 0.223144 0.446289
58 1 0.223144 0.223144 0.446289
41 1 0.334716 0 0.334716
43 1 0.446289 0.111572 0.334716
46 1 0.334716 0.223144 0.334716
54 1 0.334716 0.111572 0.446289
55 1 0.446289 0 0.446289
60 1 0.446289 0.223144 0.446289
45 1 0 0.334716 0.334716
47 1 0.223144 0.334716 0.334716
49 1 0.111572 0.446289 0.334716
57 1 0.111572 0.334716 0.446289
61 1 0 0.446289 0.446289
62 1 0.223144 0.446289 0.446289
48 1 0.446289 0.334716 0.334716
50 1 0.334716 0.446289 0.334716
59 1 0.334716 0.334716 0.446289
63 1 0.446289 0.446289 0.446289
64 1 0.111572 0 0.557861
65 1 0 0.111572 0.557861
67 1 0.223144 0.111572 0.557861
69 1 0.111572 0.223144 0.557861
76 1 0 0 0.669433
77 1 0.111572 0.111572 0.669433
78 1 0.223144 0 0.669433
81 1 0 0.223144 0.669433
83 1 0.223144 0.223144 0.669433
66 1 0.334716 0 0.557861
68 1 0.446289 0.111572 0.557861
71 1 0.334716 0.223144 0.557861
79 1 0.334716 0.111572 0.669433
80 1 0.446289 0 0.669433
85 1 0.446289 0.223144 0.669433
70 1 0 0.334716 0.557861
72 1 0.223144 0.334716 0.557861
74 1 0.111572 0.446289 0.557861
82 1 0.111572 0.334716 0.669433
86 1 0 0.446289 0.669433
87 1 0.223144 0.446289 0.669433
73 1 0.446289 0.334716 0.557861
75 1 0.334716 0.446289 0.557861
84 1 0.334716 0.334716 0.669433
88 1 0.446289 0.446289 0.669433
89 1 0.111572 0 0.781005
90 1 0 0.111572 0.781005
92 1 0.223144 0.111572 0.781005
94 1 0.111572 0.223144 0.781005
101 1 0 0 0.892577
102 1 0.111572 0.111572 0.892577
103 1 0.223144 0 0.892577
106 1 0 0.223144 0.892577
108 1 0.223144 0.223144 0.892577
91 1 0.334716 0 0.781005
93 1 0.446289 0.111572 0.781005
96 1 0.334716 0.223144 0.781005
104 1 0.334716 0.111572 0.892577
105 1 0.446289 0 0.892577
110 1 0.446289 0.223144 0.892577
95 1 0 0.334716 0.781005
97 1 0.223144 0.334716 0.781005
99 1 0.111572 0.446289 0.781005
107 1 0.111572 0.334716 0.892577
111 1 0 0.446289 0.892577
112 1 0.223144 0.446289 0.892577
98 1 0.446289 0.334716 0.781005
100 1 0.334716 0.446289 0.781005
109 1 0.334716 0.334716 0.892577
113 1 0.446289 0.446289 0.892577
114 1 0.111572 0.557861 0
115 1 0 0.557861 0.111572
117 1 0.223144 0.557861 0.111572
119 1 0 0.669433 0
121 1 0.111572 0.669433 0.111572
123 1 0.223144 0.669433 0
134 1 0.111572 0.557861 0.223144
136 1 0 0.669433 0.223144
138 1 0.223144 0.669433 0.223144
116 1 0.334716 0.557861 0
118 1 0.446289 0.557861 0.111572
125 1 0.334716 0.669433 0.111572
127 1 0.446289 0.669433 0
135 1 0.334716 0.557861 0.223144
140 1 0.446289 0.669433 0.223144
120 1 0.111572 0.781005 0
122 1 0 0.781005 0.111572
126 1 0.223144 0.781005 0.111572
129 1 0 0.892577 0
130 1 0.111572 0.892577 0.111572
131 1 0.223144 0.892577 0
137 1 0.111572 0.781005 0.223144
141 1 0 0.892577 0.223144
142 1 0.223144 0.892577 0.223144
124 1 0.334716 0.781005 0
128 1 0.446289 0.781005 0.111572
132 1 0.334716 0.892577 0.111572
133 1 0.446289 0.892577 0
139 1 0.334716 0.781005 0.223144
143 1 0.446289 0.892577 0.223144
144 1 0 0.557861 0.334716
145 1 0.223144 0.557861 0.334716
147 1 0.111572 0.669433 0.334716
154 1 0.111572 0.557861 0.446289
156 1 0 0.669433 0.446289
158 1 0.223144 0.669433 0.446289
146 1 0.446289 0.557861 0.334716
149 1 0.334716 0.669433 0.334716
155 1 0.334716 0.557861 0.446289
160 1 0.446289 0.669433 0.446289
148 1 0 0.781005 0.334716
150 1 0.223144 0.781005 0.334716
152 1 0.111572 0.892577 0.334716
157 1 0.111572 0.781005 0.446289
161 1 0 0.892577 0.446289
162 1 0.223144 0.892577 0.446289
151 1 0.446289 0.781005 0.334716
153 1 0.334716 0.892577 0.334716
159 1 0.334716 0.781005 0.446289
163 1 0.446289 0.892577 0.446289
164 1 0 0.557861 0.557861
165 1 0.223144 0.557861 0.557861
167 1 0.111572 0.669433 0.557861
174 1 0.111572 0.557861 0.669433
176 1 0 0.669433 0.669433
178 1 0.223144 0.669433 0.669433
166 1 0.446289 0.557861 0.557861
169 1 0.334716 0.669433 0.557861
175 1 0.334716 0.557861 0.669433
180 1 0.446289 0.669433 0.669433
168 1 0 0.781005 0.557861
170 1 0.223144 0.781005 0.557861
172 1 0.111572 0.892577 0.557861
177 1 0.111572 0.781005 0.669433
181 1 0 0.892577 0.669433
182 1 0.223144 0.892577 0.669433
171 1 0.446289 0.781005 0.557861
173 1 0.334716 0.892577 0.557861
179 1 0.334716 0.781005 0.669433
183 1 0.446289 0.892577 0.669433
184 1 0 0.557861 0.781005
185 1 0.223144 0.557861 0.781005
187 1 0.111572 0.669433 0.781005
194 1 0.111572 0.557861 0.892577
196 1 0 0.669433 0.892577
198 1 0.223144 0.669433 0.892577
186 1 0.446289 0.557861 0.781005
189 1 0.334716 0.669433 0.781005
195 1 0.334716 0.557861 0.892577
200 1 0.446289 0.669433 0.892577
188 1 0 0.781005 0.781005
190 1 0.223144 0.781005 0.781005
192 1 0.111572 0.892577 0.781005
197 1 0.111572 0.781005 0.892577
201 1 0 0.892577 0.892577
202 1 0.223144 0.892577 0.892577
191 1 0.446289 0.781005 0.781005
193 1 0.334716 0.892577 0.781005
199 1 0.334716 0.781005 0.892577
203 1 0.446289 0.892577 0.892577
204 1 0.557861 0.111572 0
205 1 0.557861 0 0.111572
206 1 0.669433 0 0
209 1 0.669433 0.111572 0.111572
213 1 0.557861 0.223144 0.111572
214 1 0.669433 0.223144 0
224 1 0.557861 0.111572 0.223144
225 1 0.669433 0 0.223144
229 1 0.669433 0.223144 0.223144
207 1 0.781005 0.111572 0
208 1 0.781005 0 0.111572
210 1 0.892577 0 0
211 1 0.892577 0.111572 0.111572
216 1 0.781005 0.223144 0.111572
218 1 0.892577 0.223144 0
226 1 0.781005 0.111572 0.223144
227 1 0.892577 0 0.223144
231 1 0.892577 0.223144 0.223144
212 1 0.557861 0.334716 0
217 1 0.669433 0.334716 0.111572
220 1 0.557861 0.446289 0.111572
221 1 0.669433 0.446289 0
228 1 0.557861 0.334716 0.223144
232 1 0.669433 0.446289 0.223144
215 1 0.781005 0.334716 0
219 1 0.892577 0.334716 0.111572
222 1 0.781005 0.446289 0.111572
223 1 0.892577 0.446289 0
230 1 0.781005 0.334716 0.223144
233 1 0.892577 0.446289 0.223144
234 1 0.557861 0 0.334716
236 1 0.669433 0.111572 0.334716
238 1 0.557861 0.223144 0.334716
244 1 0.557861 0.111572 0.446289
245 1 0.669433 0 0.446289
249 1 0.669433 0.223144 0.446289
235 1 0.781005 0 0.334716
237 1 0.892577 0.111572 0.334716
239 1 0.781005 0.223144 0.334716
246 1 0.781005 0.111572 0.446289
247 1 0.892577 0 0.446289
251 1 0.892577 0.223144 0.446289
240 1 0.669433 0.334716 0.334716
242 1 0.557861 0.446289 0.334716
248 1 0.557861 0.334716 0.446289
252 1 0.669433 0.446289 0.446289
241 1 0.892577 0.334716 0.334716
243 1 0.781005 0.446289 0.334716
250 1 0.781005 0.334716 0.446289
253 1 0.892577 0.446289 0.446289
254 1 0.557861 0 0.557861
256 1 0.669433 0.111572 0.557861
258 1 0.557861 0.223144 0.557861
264 1 0.557861 0.111572 0.669433
265 1 0.669433 0 0.669433
269 1 0.669433 0.223144 0.669433
255 1 0.781005 0 0.557861
257 1 0.892577 0.111572 0.557861
259 1 0.781005 0.223144 0.557861
266 1 0.781005 0.111572 0.669433
267 1 0.892577 0 0.669433
271 1 0.892577 0.223144 0.669433
260 1 0.669433 0.334716 0.557861
262 1 0.557861 0.446289 0.557861
268 1 0.557861 0.334716 0.669433
272 1 0.669433 0.446289 0.669433
261 1 0.892577 0.334716 0.557861
263 1 0.781005 0.446289 0.557861
270 1 0.781005 0.334716 0.669433
273 1 0.892577 0.446289 0.669433
274 1 0.557861 0 0.781005
276 1 0.669433 0.111572 0.781005
278 1 0.557861 0.223144 0.781005
284 1 0.557861 0.111572 0.892577
285 1 0.669433 0 0.892577
289 2 0.669433 0.223144 0.892577
275 1 0.781005 0 0.781005
277 1 0.892577 0.111572 0.781005
279 1 0.781005 0.223144 0.781005
286 1 0.781005 0.111572 0.892577
287 1 0.892577 0 0.892577
291 2 0.892577 0.223144 0.892577
280 1 0.669433 0.334716 0.781005
282 1 0.557861 0.446289 0.781005
288 1 0.557861 0.334716 0.892577
292 2 0.669433 0.446289 0.892577
281 1 0.892577 0.334716 0.781005
283 1 0.781005 0.446289 0.781005
290 2 0.781005 0.334716 0.892577
293 2 0.892577 0.446289 0.892577
294 2 0.557861 0.557861 0
296 2 0.669433 0.557861 0.111572
299 2 0.557861 0.669433 0.111572
300 2 0.669433 0.669433 0
310 2 0.557861 0.557861 0.223144
313 2 0.669433 0.669433 0.223144
295 2 0.781005 0.557861 0
297 2 0.892577 0.557861 0.111572
302 2 0.781005 0.669433 0.111572
304 2 0.892577 0.669433 0
311 2 0.781005 0.557861 0.223144
315 2 0.892577 0.669433 0.223144
298 2 0.557861 0.781005 0
303 2 0.669433 0.781005 0.111572
306 2 0.557861 0.892577 0.111572
307 2 0.669433 0.892577 0
312 2 0.557861 0.781005 0.223144
316 2 0.669433 0.892577 0.223144
301 2 0.781005 0.781005 0
305 2 0.892577 0.781005 0.111572
308 2 0.781005 0.892577 0.111572
309 2 0.892577 0.892577 0
314 2 0.781005 0.781005 0.223144
317 2 0.892577 0.892577 0.223144
318 2 0.669433 0.557861 0.334716
320 2 0.557861 0.669433 0.334716
326 2 0.557861 0.557861 0.446289
329 2 0.669433 0.669433 0.446289
319 2 0.892577 0.557861 0.334716
321 2 0.781005 0.669433 0.334716
327 2 0.781005 0.557861 0.446289
331 2 0.892577 0.669433 0.446289
322 2 0.669433 0.781005 0.334716
324 2 0.557861 0.892577 0.334716
328 2 0.557861 0.781005 0.446289
332 2 0.669433 0.892577 0.446289
323 2 0.892577 0.781005 0.334716
325 2 0.781005 0.892577 0.334716
330 2 0.781005 0.781005 0.446289
333 2 0.892577 0.892577 0.446289
334 2 0.669433 0.557861 0.557861
336 2 0.557861 0.669433 0.557861
342 2 0.557861 0.557861 0.669433
345 2 0.669433 0.669433 0.669433
335 2 0.892577 0.557861 0.557861
337 2 0.781005 0.669433 0.557861
343 2 0.781005 0.557861 0.669433
347 2 0.892577 0.669433 0.669433
338 2 0.669433 0.781005 0.557861
340 2 0.557861 0.892577 0.557861
344 2 0.557861 0.781005 0.669433
348 2 0.669433 0.892577 0.669433
339 2 0.892577 0.781005 0.557861
341 2 0.781005 0.892577 0.557861
346 2 0.781005 0.781005 0.669433
349 2 0.892577 0.892577 0.669433
350 2 0.669433 0.557861 0.781005
352 2 0.557861 0.669433 0.781005
358 2 0.557861 0.557861 0.892577
351 2 0.892577 0.557861 0.781005
353 2 0.781005 0.669433 0.781005
359 2 0.781005 0.557861 0.892577
354 2 0.669433 0.781005 0.781005
356 2 0.557861 0.892577 0.781005
360 2 0.557861 0.781005 0.892577
355 2 0.892577 0.781005 0.781005
357 2 0.781005 0.892577 0.781005
ITEM: TIMESTEP
10000
ITEM: NUMBER OF ATOMS
360
ITEM: BOX BOUNDS pp pp pp
0.0000000000000000e+00 6.6943295008216896e+00
0.0000000000000000e+00 6.6943295008216896e+00
0.0000000000000000e+00 6.6943295008216896e+00
ITEM: ATOMS id type xs ys zs
234 1 0.100598 0.231115 0.145583
127 1 0.178808 0.0486873 0.170295
53 1 0.0518164 0.0597584 0.0619158
58 1 0.210832 0.132361 0.0687967
242 1 0.0396022 0.120515 0.192321
231 1 0.0102114 0.219254 0.0309312
126 1 0.208679 0.224506 0.227041
228 1 0.396712 0.163494 0.0422313
232 1 0.491292 0.23885 0.095335
134 1 0.286593 0.125079 0.176883
331 2 0.340783 0.224672 0.160434
322 2 0.309216 0.00361242 0.11597
210 1 0.461805 0.0721943 0.164732
183 1 0.439876 0.194238 0.213629
96 1 0.24647 0.348919 0.0375801
316 2 0.122436 0.432346 0.149135
15 1 0.00468337 0.335779 0.149127
271 1 0.104832 0.346214 0.231352
59 1 0.134156 0.257231 0.00801272
125 1 0.0685257 0.425317 0.0570636
164 1 0.36858 0.316729 0.0818415
324 2 0.289616 0.401265 0.128401
274 1 0.450447 0.435798 0.073209
220 1 0.254522 0.487057 0.0730027
198 1 0.0373906 0.0570685 0.494244
104 1 0.219823 0.171021 0.447835
354 2 0.177366 0.0497926 0.360346
298 2 0.0962272 0.141509 0.292932
177 1 0.175928 0.014876 0.460854
233 1 0.37347 0.130039 0.343077
111 1 0.347944 0.203493 0.453919
321 2 0.275991 0.0589365 0.463858
57 1 0.411384 0.0323912 0.442365
345 2 0.251029 0.101669 0.277695
211 1 0.298816 0.003229 0.281685
273 1 0.0882681 0.455689 0.494082
91 1 0.165679 0.448243 0.352498
61 1 0.181705 0.294125 0.337379
311 2 0.119121 0.250758 0.439865
119 1 0.0521921 0.275125 0.339305
199 1 0.0567269 0.468734 0.258604
309 2 0.252371 0.371951 0.453606
107 1 0.279283 0.46748 0.446504
305 2 0.283873 0.320525 0.256229
73 1 0.279099 0.435796 0.328027
113 1 0.389339 0.373689 0.253206
37 1 0.444999 0.409584 0.396823
103 1 0.349371 0.270818 0.343467
153 1 0.0461235 0.20537 0.675654
83 1 0.0438526 0.177577 0.521366
124 1 0.144027 0.0598475 0.630285
351 2 0.14171 0.166853 0.576478
139 1 0.212117 0.246539 0.66523
200 1 0.00307702 0.059053 0.611855
290 2 0.0157753 0.0698544 0.730394
114 1 0.291129 0.158585 0.591096
71 1 0.486674 0.221467 0.645972
259 1 0.441809 0.140455 0.520944
239 1 0.444356 0.032323 0.634875
337 2 0.251746 0.058263 0.593832
246 1 0.2728 0.0779165 0.710486
312 2 0.335994 0.198566 0.722575
270 1 0.45902 0.112536 0.745074
297 2 0.112604 0.437569 0.644139
261 1 0.119188 0.332552 0.513138
229 1 0.0740058 0.341946 0.680285
165 1 0.205587 0.494294 0.692985
288 1 0.276514 0.306544 0.533901
9 1 0.254462 0.351104 0.688352
40 1 0.402351 0.341175 0.690159
178 1 0.45094 0.42383 0.541807
25 1 0.320809 0.428503 0.614599
293 2 0.419005 0.310942 0.554786
347 2 0.0734322 0.0896627 0.906985
92 1 0.19566 0.106602 0.932186
189 1 0.131842 0.248711 0.767532
108 1 0.121841 0.0697204 0.806167
24 1 0.333164 0.204271 0.948179
283 1 0.490224 0.0530623 0.961178
49 1 0.496214 0.248605 0.762082
279 1 0.25129 0.180145 0.831176
341 2 0.276286 0.0744183 0.838361
263 1 0.419258 0.159561 0.876939
278 1 0.372368 0.00346312 0.783182
47 1 0.32901 0.0522295 0.995401
78 1 0.0339025 0.285782 0.888008
69 1 0.217799 0.289999 0.892171
346 2 0.115159 0.367131 0.962509
55 1 0.109866 0.460705 0.77901
216 1 0.353784 0.39938 0.9647
287 1 0.352242 0.285826 0.804636
13 1 0.414352 0.403121 0.857623
145 1 0.319854 0.454106 0.780534
141 1 0.470402 0.300095 0.975176
160 1 0.187759 0.702969 0.147591
310 2 0.10127 0.581923 0.217355
151 1 0.0809218 0.733471 0.060901
168 1 0.204743 0.535932 0.225208
213 1 0.150726 0.592898 0.105632
128 1 0.202986 0.673869 0.00248747
301 2 0.330695 0.627162 0.0111332
155 1 0.454658 0.683986 0.0771283
203 1 0.488828 0.661317 0.228179
64 1 0.317758 0.660041 0.150686
282 1 0.379668 0.531128 0.139841
332 2 0.117879 0.805926 0.19318
157 1 0.202594 0.999351 0.0420343
77 1 0.0751782 0.938612 0.102861
327 2 0.00493046 0.801716 0.0146347
342 2 0.189263 0.81847 0.100752
214 1 0.469677 0.871769 0.098292
38 1 0.312865 0.893916 0.036941
109 1 0.269453 0.80771 0.167578
52 1 0.400141 0.925227 0.198016
358 2 0.367264 0.832678 0.128024
303 2 0.19854 0.626923 0.429812
318 2 0.15407 0.67173 0.269145
169 1 0.073404 0.638758 0.426841
302 2 0.0273002 0.69 0.274552
74 1 0.00540511 0.528378 0.397353
161 1 0.265846 0.568097 0.362081
174 1 0.387962 0.619708 0.287497
245 1 0.305014 0.698418 0.340347
304 2 0.487319 0.505678 0.411351
267 1 0.406057 0.577721 0.428227
42 1 0.430575 0.72313 0.36493
219 1 0.431583 0.502298 0.287187
90 1 0.129744 0.778999 0.334449
120 1 0.0895523 0.97497 0.385392
184 1 0.156425 0.910828 0.270673
146 1 0.0742139 0.854458 0.494412
159 1 0.21717 0.800896 0.453083
43 1 0.00334532 0.890341 0.264717
323 2 0.24028 0.923819 0.498424
97 1 0.25105 0.813012 0.300965
335 2 0.366856 0.827028 0.394099
121 1 0.40028 0.953329 0.343197
112 1 0.334391 0.850778 0.489871
86 1 0.0726817 0.615439 0.590723
72 1 0.223624 0.588801 0.55362
1 1 0.00504094 0.505011 0.66755
320 2 0.182472 0.592602 0.687847
149 1 0.167095 0.72804 0.691612
308 2 0.0283509 0.539175 0.507484
10 1 0.459502 0.505574 0.73046
336 2 0.254387 0.692128 0.521486
75 1 0.384998 0.594071 0.685363
268 1 0.28745 0.7145 0.652166
265 1 0.378161 0.551352 0.557675
51 1 0.395482 0.687687 0.525754
243 1 0.164975 0.849906 0.616721
313 2 0.244497 0.938011 0.673786
188 1 0.0440896 0.791727 0.725442
115 1 0.098756 0.947788 0.69903
30 1 0.457254 0.935196 0.51141
325 2 0.338334 0.870786 0.599823
191 1 0.339968 0.986224 0.550744
280 1 0.359398 0.875543 0.704542
236 1 0.428823 0.781918 0.59741
286 1 0.091677 0.727892 0.854928
167 1 0.127028 0.548407 0.939271
182 1 0.231882 0.708077 0.854734
89 1 0.135022 0.617738 0.826943
317 2 0.483454 0.675312 0.765321
171 1 0.267358 0.500437 0.903096
16 1 0.437443 0.680207 0.957722
179 1 0.428216 0.628547 0.834058
307 2 0.388172 0.522337 0.886628
95 1 0.271319 0.597389 0.79034
85 1 0.327823 0.727979 0.986185
253 1 0.362092 0.529139 0.987333
359 2 0.498814 0.507094 0.90251
272 1 0.497413 0.545006 0.998186
131 1 0.172928 0.810074 0.934317
152 1 0.0943073 0.955552 0.864317
48 1 0.159265 0.847454 0.782859
352 2 0.0618216 0.991571 0.980947
28 1 0.212901 0.958294 0.791528
19 1 0.226364 0.93871 0.909974
218 1 0.0221049 0.844001 0.883587
344 2 0.323034 0.857705 0.93969
123 1 0.457163 0.883013 0.835909
227 1 0.30256 0.836031 0.834416
54 1 0.428742 0.933127 0.959033
87 1 0.441785 0.773983 0.752481
105 1 0.681126 0.223992 0.0686341
247 1 0.74746 0.0849601 0.103506
349 2 0.579751 0.141299 0.185493
130 1 0.579625 0.137529 0.0457691
240 1 0.846507 0.193371 0.0427776
60 1 0.943533 0.207961 0.1487
162 1 0.889995 0.0257862 0.0964605
314 2 0.842485 0.0899531 0.166186
300 2 0.963628 0.105239 0.0127825
241 1 0.636786 0.467528 0.0245348
122 1 0.639259 0.264997 0.204131
360 2 0.527063 0.391335 0.171217
17 1 0.617607 0.389739 0.236616
156 1 0.606394 0.337551 0.0571339
299 2 0.539487 0.493073 0.222507
256 1 0.703618 0.480755 0.175724
39 1 0.856523 0.435304 0.226863
215 1 0.794578 0.296728 0.113342
34 1 0.948366 0.415188 0.0353627
46 1 0.768637 0.415407 0.0744703
62 1 0.637405 0.185512 0.320885
226 1 0.723914 0.133376 0.251778
101 1 0.547498 0.088921 0.414706
102 1 0.501297 0.215297 0.340742
106 1 0.66569 0.0270037 0.34117
275 1 0.705323 0.101945 0.462221
209 1 0.559354 0.082335 0.287796
294 2 0.691279 0.226669 0.49238
4 1 0.917897 0.131952 0.252417
117 1 0.794392 0.181038 0.369993
68 1 0.832406 0.0568603 0.323749
175 1 0.894338 0.142918 0.446483
340 2 0.970661 0.00773178 0.280168
14 1 0.986638 0.169319 0.368803
84 1 0.510391 0.327897 0.291914
249 1 0.686268 0.431148 0.437824
264 1 0.635014 0.331328 0.376362
230 1 0.570357 0.468477 0.344371
201 1 0.880025 0.299914 0.400026
205 1 0.835688 0.375289 0.483335
132 1 0.996738 0.408158 0.376627
88 1 0.755182 0.317808 0.258127
266 1 0.980165 0.313496 0.497761
45 1 0.819327 0.445808 0.356732
70 1 0.881002 0.254235 0.261248
225 1 0.608284 0.0478895 0.687048
110 1 0.61061 0.181113 0.661014
193 1 0.55031 0.0897504 0.575073
12 1 0.790548 0.0317236 0.579599
135 1 0.888558 0.0125342 0.731398
284 1 0.909643 0.144943 0.72238
79 1 0.750397 0.0686965 0.701216
133 1 0.761772 0.167065 0.594082
289 2 0.953323 0.173445 0.601846
292 2 0.67607 0.4226 0.694082
202 1 0.610264 0.460875 0.589831
221 1 0.560184 0.350235 0.700017
22 1 0.679899 0.30671 0.591016
66 1 0.556894 0.278971 0.50293
94 1 0.842018 0.271705 0.558291
2 1 0.865148 0.385415 0.730604
212 1 0.970654 0.284222 0.615225
192 1 0.903191 0.48907 0.579635
56 1 0.77366 0.391837 0.608302
204 1 0.821646 0.258237 0.689552
306 2 0.928393 0.369523 0.586147
238 1 0.543147 0.203241 0.929031
148 1 0.700501 0.192527 0.788707
208 1 0.664534 0.14955 0.923768
33 1 0.548283 0.0774722 0.827107
170 1 0.802158 0.0889768 0.969702
154 1 0.940918 0.177327 0.877902
6 1 0.961518 0.0529775 0.854566
262 1 0.765312 0.234145 0.908521
81 1 0.830133 0.124682 0.850871
190 1 0.65295 0.306665 0.765939
3 1 0.557422 0.419448 0.869051
186 1 0.66542 0.325732 0.903294
173 1 0.981064 0.268789 0.767394
350 2 0.798007 0.312738 0.840666
143 1 0.930618 0.361443 0.856481
357 2 0.935952 0.455657 0.783004
244 1 0.843516 0.326191 0.943445
258 1 0.790321 0.498561 0.860429
31 1 0.576719 0.574904 0.135336
44 1 0.670978 0.693131 0.176404
195 1 0.69762 0.574792 0.0800652
21 1 0.780967 0.732938 0.0743411
333 2 0.898037 0.734456 0.149178
338 2 0.750967 0.597284 0.245845
65 1 0.837566 0.538643 0.00193116
26 1 0.834062 0.704934 0.237015
281 1 0.96982 0.596831 0.228261
63 1 0.95367 0.690632 0.0546634
295 2 0.891142 0.620339 0.153134
18 1 0.962365 0.555258 0.0363152
180 1 0.558668 0.792286 0.215654
29 1 0.582043 0.974358 0.123472
136 1 0.601941 0.782845 0.0577815
251 1 0.723653 0.86714 0.154112
27 1 0.717723 0.974422 0.208061
257 1 0.706293 0.937902 0.033763
67 1 0.855822 0.971903 0.213358
326 2 0.981743 0.917906 0.00782264
185 1 0.881319 0.820324 0.094996
296 2 0.985603 0.904683 0.147775
217 1 0.996692 0.790334 0.161002
248 1 0.591244 0.593424 0.317173
194 1 0.733918 0.673337 0.323068
166 1 0.720566 0.513587 0.326163
144 1 0.523481 0.683657 0.441143
172 1 0.665425 0.671496 0.444057
196 1 0.692811 0.544122 0.459255
7 1 0.548287 0.559926 0.491431
138 1 0.921024 0.676406 0.344054
235 1 0.962674 0.698816 0.465421
163 1 0.815473 0.513785 0.490618
315 2 0.814996 0.555264 0.393457
11 1 0.62615 0.878281 0.310491
353 2 0.598876 0.85952 0.425081
8 1 0.542886 0.952249 0.412574
129 1 0.72893 0.791315 0.253903
93 1 0.686745 0.799338 0.381616
36 1 0.738888 0.952372 0.439967
237 1 0.517021 0.82329 0.462152
147 1 0.941719 0.997172 0.392039
255 1 0.901392 0.87575 0.432375
5 1 0.807336 0.878063 0.306397
348 2 0.966962 0.762022 0.353598
224 1 0.826412 0.752661 0.413064
150 1 0.619983 0.698895 0.595184
339 2 0.530569 0.747598 0.64716
223 1 0.700798 0.573678 0.60463
285 1 0.70105 0.688727 0.725742
328 2 0.540116 0.523817 0.638459
80 1 0.521684 0.629597 0.660405
140 1 0.768223 0.549041 0.735809
329 2 0.778033 0.668781 0.625248
355 2 0.851426 0.668395 0.74364
187 1 0.943102 0.640883 0.64127
330 2 0.891249 0.602491 0.508337
334 2 0.765589 0.688688 0.505185
137 1 0.9317 0.743911 0.729413
100 1 0.601226 0.92824 0.62001
254 1 0.69353 0.840864 0.701706
260 1 0.664649 0.812851 0.52257
181 1 0.643125 0.986372 0.516647
50 1 0.519225 0.848278 0.687609
158 1 0.89173 0.992483 0.511569
20 1 0.906857 0.787337 0.565689
207 1 0.830289 0.892982 0.590406
250 1 0.773571 0.770173 0.609587
142 1 0.960059 0.885941 0.72337
32 1 0.97663 0.920571 0.587014
118 1 0.559491 0.72069 0.921933
319 2 0.578149 0.698096 0.787914
277 1 0.559039 0.584918 0.843557
291 2 0.674325 0.511679 0.917044
82 1 0.671081 0.722701 0.848915
222 1 0.645639 0.536531 0.752837
206 1 0.942566 0.670901 0.912354
252 1 0.894168 0.56475 0.766902
197 1 0.966655 0.513238 0.886963
76 1 0.715552 0.97167 0.772357
276 1 0.681854 0.832379 0.951095
116 1 0.595366 0.850681 0.818014
176 1 0.593012 0.975332 0.93285
99 1 0.534396 0.838759 0.957692
269 1 0.518809 0.967804 0.751298
343 2 0.89805 0.846559 0.991744
35 1 0.815953 0.769404 0.799799
356 2 0.967305 0.97518 0.918679
41 1 0.883826 0.883556 0.843612
98 1 0.79785 0.98632 0.90023
23 1 0.796506 0.851953 0.940391
