ITEM: TIMESTEP
0
ITEM: NUMBER OF ATOMS
360
ITEM: BOX BOUNDS pp pp pp
0.0000000000000000e+00 6.6943295008216896e+00
0.0000000000000000e+00 6.6943295008216896e+00
0.0000000000000000e+00 6.6943295008216896e+00
ITEM: ATOMS id type xs ys zs
99 1 0.130479 0.0781662 0.174966
346 2 0.00957705 0.0542343 0.150415
115 1 0.111486 0.08933 0.0222934
344 2 0.245832 0.248563 0.039222
66 1 0.0173959 0.15435 0.236408
292 2 0.269992 0.245085 0.247056
178 1 0.392966 0.175886 0.224866
94 1 0.255344 0.135202 0.111885
126 1 0.444536 0.0896901 0.0930896
9 1 0.493072 0.235778 0.111453
225 1 0.466371 0.0272074 0.241121
111 1 0.380298 0.201569 0.0104992
205 1 0.0879185 0.255564 0.0448568
20 1 0.239098 0.381373 0.0587557
17 1 0.199254 0.463111 0.17725
287 1 0.167638 0.280555 0.167128
84 1 0.07721 0.402814 0.086464
347 2 0.154035 0.455611 0.00625724
65 1 0.0623683 0.367084 0.245941
266 1 0.357297 0.474883 0.0839245
216 1 0.452648 0.381411 0.168694
297 2 0.316351 0.393207 0.183444
110 1 0.330481 0.271451 0.135468
145 1 0.440505 0.352772 0.00288814
317 2 0.0250208 0.155459 0.371433
136 1 0.165512 0.143454 0.451634
288 1 0.111177 0.0514814 0.33883
28 1 0.127569 0.233382 0.324273
338 2 0.122521 0.0143284 0.486618
43 1 0.0219707 0.0863231 0.47393
7 1 0.389721 0.109191 0.455613
343 2 0.394569 0.244094 0.449897
172 1 0.259497 0.0108145 0.404018
195 1 0.25613 0.11518 0.253471
321 2 0.361108 0.103248 0.325824
230 1 0.486215 0.206581 0.365467
223 1 0.298311 0.209539 0.365388
153 1 0.0543961 0.258162 0.462632
233 1 0.234224 0.346024 0.288009
353 2 0.205969 0.275274 0.423509
259 1 0.124906 0.386721 0.402943
39 1 0.459129 0.463064 0.305376
164 1 0.446493 0.361497 0.457988
341 2 0.338531 0.429402 0.324049
197 1 0.28526 0.369438 0.433436
220 1 0.4008 0.32477 0.315244
104 1 0.203073 0.2243 0.672514
298 2 0.172321 0.104859 0.694233
328 2 0.135926 0.207737 0.556281
73 1 0.0611521 0.113714 0.624565
210 1 0.0300844 0.186753 0.749646
63 1 0.260429 0.0761074 0.566387
276 1 0.293771 0.0350023 0.705531
187 1 0.349279 0.180687 0.683294
3 1 0.280283 0.218243 0.51763
269 1 0.430087 0.0640972 0.608333
148 1 0.461207 0.201569 0.549669
193 1 0.18475 0.479585 0.518464
226 1 0.0511254 0.278484 0.622781
349 2 0.137383 0.328863 0.711309
284 1 0.167464 0.336488 0.550386
18 1 0.249956 0.409596 0.661552
27 1 0.0886037 0.432631 0.655462
229 1 0.0232208 0.402971 0.519961
10 1 0.419083 0.426855 0.698643
137 1 0.35856 0.31814 0.594522
246 1 0.343736 0.458356 0.555842
79 1 0.47673 0.293979 0.706575
211 1 0.174123 0.0932482 0.823591
93 1 0.220296 0.161499 0.959963
6 1 0.0568666 0.192681 0.915475
274 1 0.0388082 0.0232126 0.873857
350 2 0.207608 0.0400265 0.946206
330 2 0.403674 0.08621 0.759251
124 1 0.32554 0.170387 0.848776
75 1 0.47038 0.0870187 0.869315
57 1 0.336176 0.056226 0.965806
37 1 0.46084 0.244924 0.854158
26 1 0.173821 0.257442 0.819215
207 1 0.00752118 0.431819 0.94018
101 1 0.140411 0.351577 0.935877
149 1 0.147719 0.424853 0.798095
262 1 0.0395747 0.324774 0.832886
212 1 0.302788 0.308503 0.925918
258 1 0.426542 0.407106 0.856627
327 2 0.392739 0.465388 0.962623
285 1 0.319655 0.313654 0.768644
132 1 0.253218 0.466749 0.92297
183 1 0.165651 0.613536 0.229452
14 1 0.239508 0.587951 0.0793583
174 1 0.0423031 0.695683 0.0333683
232 1 0.171392 0.725597 0.125526
87 1 0.0796907 0.564699 0.0946513
54 1 0.0335706 0.67219 0.204401
339 2 0.297579 0.731747 0.0886457
171 1 0.388493 0.624797 0.113163
245 1 0.334481 0.528068 0.227208
249 1 0.298433 0.697932 0.22207
255 1 0.481481 0.735655 0.182704
117 1 0.481107 0.541889 0.178683
289 2 0.0161422 0.828432 0.0622586
173 1 0.0163636 0.823669 0.185076
243 1 0.145396 0.83187 0.0207414
263 1 0.0935361 0.949462 0.109181
59 1 0.229459 0.985697 0.0558509
213 1 0.176514 0.928618 0.242762
252 1 0.0309855 0.968642 0.245454
261 1 0.263435 0.854229 0.129782
163 1 0.418673 0.771898 0.029324
146 1 0.407263 0.959735 0.0621457
250 1 0.427458 0.880563 0.205956
181 1 0.326474 0.992544 0.196769
139 1 0.0697303 0.659134 0.465606
161 1 0.0742722 0.515429 0.284716
260 1 0.188839 0.655497 0.369566
279 1 0.233223 0.501852 0.349194
293 2 0.130851 0.550138 0.426093
319 2 0.0670142 0.635541 0.330162
128 1 0.00469616 0.512506 0.41504
162 1 0.438047 0.639032 0.291762
77 1 0.353665 0.715606 0.428946
352 2 0.305694 0.613374 0.332423
45 1 0.373549 0.52464 0.417411
180 1 0.495874 0.662298 0.467372
307 2 0.117114 0.76023 0.412645
217 1 0.159143 0.893042 0.404602
357 2 0.0655885 0.858112 0.329025
4 1 0.156411 0.772751 0.284094
198 1 0.0506789 0.821813 0.499016
11 1 0.00271235 0.942832 0.402979
303 2 0.396819 0.761958 0.294378
106 1 0.457171 0.835487 0.373991
308 2 0.25189 0.770404 0.377335
166 1 0.399059 0.982934 0.358261
247 1 0.299604 0.855396 0.306733
85 1 0.302547 0.872955 0.452855
356 2 0.34854 0.987379 0.495366
270 1 0.047744 0.712279 0.605067
325 2 0.0824618 0.632271 0.696524
42 1 0.216095 0.705287 0.678129
15 1 0.187884 0.547224 0.66996
313 2 0.135547 0.636341 0.578893
208 1 0.040731 0.550305 0.574725
40 1 0.245185 0.614512 0.501747
69 1 0.333236 0.579599 0.639358
329 2 0.384162 0.610217 0.520412
16 1 0.328568 0.718857 0.582213
194 1 0.487616 0.680989 0.636398
253 1 0.474987 0.536598 0.605943
326 2 0.421951 0.553384 0.729874
33 1 0.245116 0.883139 0.730368
112 1 0.200858 0.757303 0.505089
13 1 0.120591 0.831013 0.656796
23 1 0.0509152 0.963818 0.589628
131 1 0.196137 0.93546 0.555923
331 2 0.248361 0.825141 0.606612
83 1 0.124977 0.994255 0.726961
67 1 0.47951 0.955164 0.518888
100 1 0.448845 0.813207 0.533116
5 1 0.392157 0.790864 0.710718
127 1 0.35046 0.922029 0.599173
333 2 0.466845 0.914031 0.639637
121 1 0.101153 0.738474 0.897288
52 1 0.156186 0.622513 0.804747
81 1 0.0316462 0.739634 0.757819
41 1 0.12461 0.57306 0.9481
268 1 0.23919 0.714222 0.9787
291 2 0.0339815 0.626212 0.844724
283 1 0.0246453 0.500859 0.77961
318 2 0.270499 0.627015 0.878617
88 1 0.454373 0.55972 0.852784
49 1 0.335082 0.653676 0.772688
125 1 0.357018 0.581832 0.96336
2 1 0.395249 0.748227 0.875768
160 1 0.49918 0.66532 0.955387
56 1 0.311162 0.504762 0.783784
257 1 0.00720398 0.860711 0.939942
348 2 0.0818125 0.954536 0.9736
272 1 0.247028 0.754137 0.822527
184 1 0.168708 0.90443 0.868366
345 2 0.131356 0.811712 0.797598
46 1 0.0223341 0.881589 0.788177
182 1 0.304229 0.860801 0.973977
265 1 0.42536 0.907841 0.912237
322 2 0.496138 0.841419 0.811631
290 2 0.334786 0.863035 0.836208
203 1 0.294541 0.986166 0.848381
186 1 0.418139 0.942506 0.754773
234 1 0.59652 0.131045 0.0782349
31 1 0.737312 0.139591 0.220149
53 1 0.564167 0.155612 0.218412
64 1 0.680995 0.0248636 0.0105481
214 1 0.711092 0.206212 0.000278491
51 1 0.737747 0.00539288 0.155246
25 1 0.848409 0.242378 0.100278
248 1 0.877472 0.0600922 0.191481
238 1 0.828333 0.0996909 0.0579375
204 1 0.976369 0.147609 0.069986
142 1 0.660348 0.259952 0.145862
244 1 0.576789 0.379361 0.0778152
169 1 0.693083 0.397551 0.211615
354 2 0.569881 0.443131 0.227361
241 1 0.559245 0.30363 0.249443
19 1 0.67397 0.493878 0.0437187
8 1 0.914396 0.385852 0.0812695
151 1 0.968398 0.493692 0.181822
29 1 0.983832 0.275747 0.15712
311 2 0.980133 0.495526 0.0557151
133 1 0.76704 0.3671 0.0797459
315 2 0.769264 0.291434 0.205702
209 1 0.874013 0.364661 0.230479
264 1 0.638035 0.15586 0.34506
215 1 0.690121 0.0205038 0.449083
165 1 0.617263 0.00753244 0.283545
108 1 0.698927 0.173755 0.490267
302 2 0.56943 0.173884 0.459286
251 1 0.52615 0.05177 0.402019
157 1 0.794781 0.149674 0.368316
179 1 0.923074 0.220267 0.417774
222 1 0.932816 0.0678002 0.340547
34 1 0.7905 0.0128578 0.317684
175 1 0.874803 0.210249 0.255856
332 2 0.538185 0.360593 0.364064
140 1 0.717628 0.288871 0.326616
1 1 0.61611 0.307605 0.455116
201 1 0.635128 0.439169 0.353181
286 1 0.525678 0.499701 0.456292
189 1 0.706064 0.44468 0.498498
202 1 0.95413 0.377907 0.372031
300 2 0.964343 0.279628 0.288008
320 2 0.916237 0.481132 0.310071
312 2 0.843772 0.296901 0.356968
155 1 0.864298 0.450951 0.467325
235 1 0.793958 0.423897 0.348474
92 1 0.783355 0.308672 0.463559
130 1 0.601704 0.229029 0.602301
24 1 0.696196 0.108138 0.658719
150 1 0.576879 0.0891987 0.544543
323 2 0.747153 0.0587835 0.555238
267 1 0.517227 0.140878 0.71513
152 1 0.84996 0.131807 0.520804
304 2 0.821489 0.097385 0.648782
305 2 0.976977 0.182058 0.540918
55 1 0.916195 0.183626 0.660196
120 1 0.767254 0.238193 0.61486
60 1 0.910382 0.0146551 0.597205
154 1 0.953583 0.0522844 0.748237
342 2 0.693464 0.332753 0.562472
275 1 0.528281 0.369307 0.576187
36 1 0.658973 0.352769 0.685448
355 2 0.593634 0.471461 0.611389
129 1 0.907759 0.295931 0.563216
118 1 0.796845 0.393732 0.611426
58 1 0.865741 0.47738 0.723713
228 1 0.944264 0.344704 0.710029
324 2 0.940092 0.428337 0.615092
38 1 0.797236 0.326063 0.746001
21 1 0.621048 0.127251 0.921783
301 2 0.583395 0.238558 0.777477
159 1 0.694146 0.232412 0.829795
98 1 0.663932 0.0636512 0.792375
306 2 0.502052 0.141079 0.982197
242 1 0.524146 0.00997166 0.986059
62 1 0.771388 0.0892047 0.896385
167 1 0.918724 0.113531 0.927634
254 1 0.90266 0.238146 0.829688
340 2 0.835038 0.197042 0.973927
44 1 0.8098 0.138477 0.760361
309 2 0.787627 0.000912585 0.774417
359 2 0.524794 0.399218 0.922462
32 1 0.658634 0.369937 0.958503
68 1 0.578067 0.370839 0.811031
74 1 0.727791 0.444718 0.812631
102 1 0.556547 0.262417 0.967876
158 1 0.94982 0.281332 0.979263
351 2 0.879422 0.35825 0.833854
299 2 0.768161 0.429866 0.96644
282 1 0.808859 0.316885 0.92708
91 1 0.865384 0.465588 0.889632
240 1 0.572527 0.632916 0.0915811
336 2 0.551968 0.745698 0.053538
109 1 0.649189 0.547047 0.202995
360 2 0.587962 0.65687 0.21692
119 1 0.502016 0.50785 0.0140288
90 1 0.837505 0.732809 0.210005
30 1 0.760186 0.629268 0.117716
71 1 0.84359 0.514671 0.0270421
80 1 0.920729 0.623847 0.108845
200 1 0.815336 0.505522 0.204833
196 1 0.576346 0.853273 0.237211
335 2 0.657884 0.899343 0.14999
96 1 0.537378 0.860909 0.0901385
89 1 0.662843 0.755173 0.146789
256 1 0.677029 0.871256 0.0224088
61 1 0.576629 0.992768 0.132873
310 2 0.823665 0.93059 0.225128
206 1 0.888802 0.77239 0.0766314
107 1 0.918052 0.925906 0.122122
12 1 0.971569 0.997392 0.00933675
134 1 0.782077 0.858798 0.136749
358 2 0.756526 0.764959 0.0567977
224 1 0.82025 0.93982 0.00778215
105 1 0.578663 0.578571 0.330203
138 1 0.562873 0.728311 0.323196
237 1 0.65301 0.663564 0.430775
314 2 0.667758 0.544651 0.420778
116 1 0.703676 0.677718 0.270347
176 1 0.917212 0.619359 0.26807
22 1 0.768202 0.573027 0.345567
190 1 0.905817 0.641312 0.433007
72 1 0.996498 0.747459 0.358845
295 2 0.524665 0.946446 0.329567
271 1 0.598779 0.863966 0.418374
334 2 0.672466 0.777359 0.329604
122 1 0.715824 0.882769 0.275619
103 1 0.902887 0.813019 0.465309
97 1 0.808104 0.751669 0.359768
47 1 0.903788 0.863941 0.31086
86 1 0.864116 0.980902 0.45331
76 1 0.755669 0.893305 0.414058
281 1 0.706743 0.500873 0.660725
337 2 0.707142 0.690241 0.603507
48 1 0.639071 0.674978 0.712553
147 1 0.625427 0.590214 0.564468
78 1 0.562819 0.529341 0.730391
35 1 0.876647 0.542375 0.581924
239 1 0.790239 0.631297 0.675514
191 1 0.866545 0.711986 0.578207
156 1 0.946467 0.631302 0.687562
168 1 0.764233 0.609 0.504401
231 1 0.738257 0.786172 0.686678
123 1 0.592818 0.754198 0.54294
227 1 0.634518 0.934955 0.557955
221 1 0.701074 0.923875 0.727384
236 1 0.566581 0.836984 0.685746
188 1 0.739108 0.78356 0.512369
199 1 0.572522 0.992936 0.688618
192 1 0.871208 0.905154 0.718544
50 1 0.780502 0.935368 0.574829
218 1 0.948837 0.836823 0.61304
95 1 0.685403 0.718787 0.971768
143 1 0.736124 0.564186 0.918043
280 1 0.614175 0.649189 0.858223
316 2 0.614468 0.602418 0.980865
296 2 0.732169 0.587339 0.792598
185 1 0.595428 0.513837 0.896868
113 1 0.500623 0.701731 0.787465
114 1 0.751516 0.70074 0.835539
170 1 0.967129 0.573994 0.952868
219 1 0.872671 0.601885 0.818534
135 1 0.945969 0.724912 0.898322
144 1 0.838284 0.656282 0.986769
278 1 0.566352 0.813327 0.943687
70 1 0.558684 0.95348 0.838414
177 1 0.639008 0.808004 0.812458
277 1 0.716946 0.941728 0.888841
82 1 0.820882 0.811523 0.923363
273 1 0.871209 0.755919 0.758983
294 2 0.767739 0.831782 0.805879
141 1 0.886029 0.953807 0.87028
ITEM: TIMESTEP
300000
ITEM: NUMBER OF ATOMS
360
ITEM: BOX BOUNDS pp pp pp
0.0000000000000000e+00 6.6943295008216896e+00
0.0000000000000000e+00 6.6943295008216896e+00
0.0000000000000000e+00 6.6943295008216896e+00
ITEM: ATOMS id type xs ys zs
94 1 0.172698 0.134496 0.205785
66 1 0.0435495 0.098252 0.124266
226 1 0.199775 0.189624 0.0483857
320 2 0.166185 0.0742017 0.0979848
9 1 0.418539 0.299548 0.215269
181 1 0.261558 0.00556611 0.177277
166 1 0.407641 0.0302591 0.0956463
93 1 0.341433 0.155599 0.156598
184 1 0.272247 0.0514725 0.0307276
287 1 0.227236 0.279217 0.172243
132 1 0.443798 0.424665 0.126312
20 1 0.0784776 0.251026 0.125398
266 1 0.097029 0.366904 0.0269982
17 1 0.101401 0.408355 0.176585
245 1 0.232119 0.419215 0.0932184
110 1 0.321286 0.431236 0.217444
297 2 0.205042 0.382702 0.234143
117 1 0.339422 0.317254 0.0697946
359 2 0.456321 0.239289 0.0931276
341 2 0.231065 0.308057 0.0102368
195 1 0.478325 0.154249 0.208531
360 2 0.446051 0.504927 0.23535
127 1 0.14285 0.186306 0.355118
45 1 0.393277 0.484719 0.354393
7 1 0.229179 0.049844 0.338285
153 1 0.0213814 0.184437 0.255753
344 2 0.219466 0.295444 0.341955
136 1 0.0936405 0.0323099 0.441086
288 1 0.0662876 0.0294349 0.273531
292 2 0.0776817 0.486722 0.317594
193 1 0.348778 0.37686 0.494081
172 1 0.296083 0.18746 0.300302
137 1 0.387489 0.113969 0.440278
100 1 0.38425 0.0530424 0.283847
251 1 0.456275 0.225525 0.352752
178 1 0.287902 0.233359 0.462207
155 1 0.0938221 0.466371 0.470877
29 1 0.0622598 0.336439 0.31674
259 1 0.155144 0.31771 0.446201
233 1 0.197057 0.432235 0.350343
276 1 0.23552 0.0676326 0.500906
164 1 0.337324 0.338533 0.341033
34 1 0.00582679 0.220946 0.415756
73 1 0.103218 0.158396 0.520228
152 1 0.194687 0.159368 0.638512
308 2 0.119755 0.0620812 0.588485
120 1 0.0426101 0.205583 0.673131
83 1 0.115163 0.0282566 0.716288
139 1 0.29512 0.277096 0.620783
124 1 0.400671 0.215197 0.70419
18 1 0.428329 0.0399747 0.692495
130 1 0.346213 0.135787 0.584675
275 1 0.459981 0.247736 0.499283
55 1 0.0184535 0.35368 0.725837
210 1 0.16408 0.323519 0.698235
353 2 0.17863 0.258378 0.559423
246 1 0.20742 0.399316 0.557683
202 1 0.0555911 0.329147 0.566475
228 1 0.0829197 0.467018 0.653438
36 1 0.430987 0.373072 0.63261
355 2 0.309186 0.486448 0.592568
160 1 0.229981 0.478985 0.700985
343 2 0.493915 0.453958 0.723205
63 1 0.263269 0.00833775 0.65014
104 1 0.116023 0.14339 0.824136
317 2 0.17716 0.024392 0.873595
211 1 0.261205 0.154003 0.910149
205 1 0.127551 0.0745191 0.971381
212 1 0.458504 0.409906 0.864499
197 1 0.258493 0.218946 0.765394
111 1 0.386391 0.198809 0.974393
75 1 0.426905 0.108181 0.831062
354 2 0.397469 0.241709 0.82536
216 1 0.0420889 0.224808 0.976155
338 2 0.0124441 0.105997 0.763347
258 1 0.339562 0.358034 0.751232
88 1 0.330753 0.331364 0.910066
346 2 0.0942955 0.260571 0.78568
283 1 0.125765 0.426403 0.809543
149 1 0.183955 0.294452 0.881171
52 1 0.219543 0.432843 0.940145
358 2 0.241713 0.392221 0.814831
10 1 0.0176433 0.348093 0.886737
268 1 0.329074 0.48908 0.828647
119 1 0.484547 0.327002 0.994537
15 1 0.3647 0.455062 1.00255
158 1 0.0412795 0.500198 0.934767
284 1 0.282878 0.0712649 0.789741
357 2 0.136738 0.648532 0.134206
279 1 0.209478 0.529805 0.208981
151 1 0.0153564 0.664741 0.071396
232 1 0.25884 0.629244 0.102804
71 1 0.117379 0.528708 0.0622841
112 1 0.0808231 0.722204 0.224532
173 1 0.176495 0.784089 0.0920338
318 2 0.239564 0.527946 0.0330089
125 1 0.400941 0.624201 0.0610041
138 1 0.312551 0.888095 0.058546
336 2 0.275855 0.72952 0.035313
250 1 0.33555 0.763482 0.144493
171 1 0.348518 0.595899 0.239598
180 1 0.385599 0.899394 0.21386
146 1 0.487464 0.887636 0.0511034
99 1 0.0173761 0.816675 0.100019
249 1 0.224523 0.860875 0.216019
4 1 0.125961 0.94846 0.124531
256 1 0.488439 0.749425 0.136482
72 1 0.0542765 0.556153 0.196364
115 1 0.00657344 0.979221 0.0126396
347 2 0.346041 0.522259 0.132447
131 1 0.0586974 0.87447 0.254754
329 2 0.0522313 0.679406 0.370086
128 1 0.147339 0.591856 0.337832
11 1 0.019623 0.731965 0.48318
69 1 0.276433 0.512038 0.46721
331 2 0.40169 0.752646 0.404208
87 1 0.246749 0.705575 0.251495
183 1 0.282219 0.665158 0.395133
303 2 0.291153 0.94224 0.298928
325 2 0.273838 0.543007 0.32896
39 1 0.461248 0.623406 0.331103
77 1 0.409298 0.755116 0.273902
42 1 0.289222 0.824484 0.355868
168 1 0.000665653 0.55717 0.405823
257 1 0.045325 0.890239 0.434092
260 1 0.150445 0.753559 0.381719
213 1 0.167486 0.918713 0.347276
332 2 0.487993 0.53491 0.427857
247 1 0.432736 0.888859 0.35003
269 1 0.325476 0.953617 0.426898
49 1 0.406931 0.650784 0.481071
161 1 0.154797 0.62699 0.50163
85 1 0.269952 0.774268 0.517808
156 1 0.148741 0.610932 0.682268
345 2 0.237473 0.713689 0.6499
35 1 0.0187398 0.586505 0.57467
326 2 0.179539 0.527209 0.581307
76 1 0.419681 0.838831 0.501095
135 1 0.105482 0.759301 0.628523
56 1 0.393545 0.517387 0.678157
253 1 0.426152 0.507907 0.529566
78 1 0.284091 0.609554 0.599082
293 2 0.136627 0.810592 0.50831
350 2 0.392586 0.741021 0.745923
356 2 0.319089 0.888586 0.552033
2 1 0.47509 0.653918 0.719466
3 1 0.393321 0.992281 0.556961
46 1 0.0786973 0.93245 0.587659
13 1 0.213712 0.854942 0.642701
290 2 0.437056 0.627932 0.603037
274 1 0.0784704 0.859115 0.73773
270 1 0.366133 0.739826 0.616279
16 1 0.358485 0.882792 0.678626
223 1 0.195603 0.923196 0.50458
291 2 0.239508 0.679489 0.864203
79 1 0.172533 0.568314 0.857356
208 1 0.126112 0.709478 0.796477
243 1 0.156235 0.657353 0.985891
81 1 0.28513 0.620215 0.748142
134 1 0.449524 1.01047 0.946579
59 1 0.300044 0.603095 0.941741
57 1 0.381262 0.705353 0.867814
14 1 0.447847 0.558564 0.914311
302 2 0.393108 0.588193 0.803978
273 1 0.0881053 0.791465 0.952755
313 2 0.146008 0.832179 0.837402
82 1 0.071916 0.951273 0.863252
203 1 0.224827 0.915273 0.782308
182 1 0.313523 0.969893 0.913401
186 1 0.248659 0.792955 0.929916
349 2 0.36837 0.969274 0.777396
272 1 0.273174 0.770947 0.765513
265 1 0.372139 0.849957 0.84074
191 1 0.031309 0.580619 0.770516
121 1 0.0179104 0.643227 0.905188
174 1 0.169262 0.921623 0.982066
261 1 0.396348 0.770842 1.00485
64 1 0.626969 0.161046 0.141671
306 2 0.847909 0.42953 0.17961
234 1 0.520056 0.128584 0.0265887
90 1 0.544791 0.478845 0.0172606
84 1 0.958012 0.329304 0.185308
103 1 0.783674 0.0914914 0.202599
204 1 0.793918 0.163232 0.0477789
252 1 0.892471 0.0421854 0.111625
342 2 0.907596 0.144167 0.199465
248 1 0.941003 0.207626 0.0921737
289 2 0.954122 0.105955 0.0175916
143 1 0.818258 0.486418 0.0725492
309 2 0.712197 0.249794 0.102092
220 1 0.575433 0.306158 0.121415
26 1 0.689945 0.392249 0.0330251
169 1 0.5936 0.442284 0.166456
74 1 0.725591 0.350241 0.190035
285 1 0.657925 0.074806 0.00509179
282 1 0.823248 0.238448 0.192636
41 1 0.976566 0.447778 0.0841679
142 1 0.844938 0.336112 0.0736757
242 1 0.567943 0.00794633 0.147458
328 2 0.976742 0.325784 0.0351302
145 1 0.735481 0.502847 0.233814
61 1 0.654307 0.120605 0.303299
67 1 0.5722 0.113053 0.440078
53 1 0.732769 0.195335 0.458876
215 1 0.734365 0.246863 0.313269
116 1 0.534111 0.00284178 0.298089
24 1 0.782275 0.0650325 0.365782
28 1 0.882837 0.179246 0.32718
201 1 0.828221 0.373722 0.307891
23 1 0.915236 0.0352717 0.274291
222 1 0.775738 0.448457 0.455037
315 2 0.934105 0.30075 0.316217
157 1 0.655595 0.389399 0.334616
235 1 0.601557 0.268931 0.426134
286 1 0.616202 0.480501 0.455302
65 1 0.963004 0.45554 0.273862
189 1 0.863559 0.2833 0.437993
295 2 0.742526 0.328632 0.40674
333 2 0.708692 0.0576822 0.495375
92 1 0.951206 0.405458 0.417316
50 1 0.936176 0.0102393 0.437666
330 2 0.892817 0.144061 0.453358
225 1 0.59192 0.270837 0.265819
335 2 1.01043 0.0965065 0.360834
230 1 0.494366 0.375057 0.427414
241 1 0.505953 0.402324 0.276697
150 1 0.65628 0.133008 0.58324
312 2 0.611177 0.238878 0.548119
221 1 0.749012 0.0199987 0.665083
148 1 0.498758 0.1135 0.57252
280 1 0.638695 0.421385 0.72391
324 2 0.978251 0.45544 0.569763
179 1 0.782893 0.207744 0.62531
231 1 0.901106 0.118249 0.688992
129 1 0.932968 0.21731 0.559556
351 2 0.915394 0.26108 0.696316
190 1 0.723604 0.328322 0.541471
105 1 0.574924 0.377094 0.571622
319 2 0.820062 0.472795 0.613055
267 1 0.652593 0.271699 0.664539
159 1 0.779264 0.361706 0.684249
229 1 0.878008 0.364226 0.566813
323 2 0.520365 0.259248 0.643221
68 1 0.539922 0.163216 0.728461
278 1 0.601655 0.00572534 0.719584
43 1 0.83099 0.0889421 0.547711
108 1 0.689048 0.49523 0.586718
60 1 0.995046 0.0655314 0.580686
98 1 0.694207 0.136872 0.748167
126 1 0.581343 0.0909527 0.862841
254 1 0.733491 0.160681 0.900311
244 1 0.630031 0.23823 0.99663
32 1 0.746566 0.490099 0.915031
167 1 0.843725 0.0684189 0.810898
262 1 0.972932 0.214424 0.815006
6 1 0.896673 0.199657 0.945341
25 1 0.824403 0.0200006 0.970047
12 1 0.989461 0.0818774 0.897906
38 1 0.654632 0.275472 0.826219
1 1 0.617343 0.411439 0.874015
300 2 0.736413 0.388706 0.830589
277 1 0.823213 0.245728 0.791272
91 1 0.870817 0.396852 0.801793
44 1 0.7762 0.31118 0.935838
101 1 0.896614 0.423252 0.954491
327 2 0.902689 0.316847 0.887666
305 2 1.00068 0.45602 0.801974
62 1 0.708834 -0.0062397 0.846557
102 1 0.513306 0.229425 0.883105
264 1 0.50906 0.325504 0.753432
19 1 0.618964 0.693953 0.0896161
334 2 0.641805 0.593435 0.202774
240 1 0.65551 0.550988 0.0759982
296 2 0.532717 0.609803 0.0339001
301 2 0.689774 0.733609 0.223216
162 1 0.507172 0.576539 0.161799
97 1 0.74785 0.645035 0.14504
175 1 0.905973 0.563314 0.173092
298 2 0.871958 0.666176 0.0825505
133 1 0.908659 0.740742 0.172386
255 1 0.552668 0.849751 0.220168
339 2 0.55274 0.78082 0.0241701
107 1 0.648906 0.849521 0.0827499
122 1 0.753694 0.845536 0.20119
144 1 0.789466 0.763997 0.0651417
263 1 0.880514 0.881539 0.0482808
217 1 0.918308 0.886643 0.208593
51 1 0.739034 0.973848 0.106646
316 2 0.816929 0.969963 0.20032
307 2 1.01472 0.990339 0.168766
140 1 0.678822 0.969049 0.25705
314 2 0.592483 0.619579 0.398329
176 1 0.700636 0.650713 0.324507
109 1 0.578762 0.531593 0.302255
30 1 0.728731 0.609769 0.475051
237 1 0.571555 0.693268 0.251186
86 1 0.811707 0.913096 0.323992
227 1 0.82105 0.745344 0.301294
340 2 0.706565 0.521203 0.370933
321 2 0.967792 0.926728 0.333903
8 1 0.836786 0.542199 0.345489
218 1 0.880333 0.675041 0.425493
209 1 0.953682 0.652229 0.28148
54 1 0.962564 0.787389 0.340965
106 1 0.526732 0.73934 0.414345
188 1 0.759424 0.929562 0.522515
89 1 0.657692 0.957351 0.408988
22 1 0.765116 0.782779 0.448666
165 1 0.662596 0.800951 0.332721
352 2 0.557465 0.886202 0.367183
47 1 0.895002 0.832148 0.478743
304 2 0.655587 0.721842 0.445245
271 1 0.620187 0.850372 0.496822
348 2 0.809258 0.628178 0.245224
96 1 0.495945 0.978541 0.447097
281 1 0.66929 0.722987 0.581153
141 1 0.919827 0.828741 0.713006
118 1 0.658934 0.6061 0.697098
224 1 0.895508 0.941915 0.60827
294 2 0.99503 0.829984 0.590453
194 1 0.797334 0.607879 0.622393
40 1 0.875141 0.548062 0.513125
337 2 0.814308 0.704947 0.540683
198 1 0.920396 0.70732 0.60111
5 1 0.515654 0.748447 0.580733
322 2 0.591183 0.71785 0.688746
196 1 0.810986 0.815792 0.59596
113 1 0.657904 0.862238 0.65594
123 1 0.623652 0.984305 0.56484
48 1 0.540185 0.527655 0.63683
95 1 0.748144 0.73508 0.713589
33 1 0.498286 0.806357 0.742266
187 1 0.503358 0.902241 0.624381
154 1 0.966859 0.982465 0.749227
147 1 0.562822 0.621271 0.512574
27 1 0.92516 0.51114 0.681466
214 1 0.785208 0.906668 0.760179
114 1 0.770684 0.499051 0.748005
239 1 0.619689 0.572417 0.921649
177 1 0.600786 0.714201 0.818156
185 1 0.543569 0.549511 0.798265
80 1 0.911048 0.750034 0.970629
192 1 0.893418 0.667926 0.756449
207 1 0.740356 0.63226 0.843218
58 1 0.890613 0.536668 0.844639
311 2 0.87815 0.657602 0.881984
170 1 0.920582 0.566352 1.00799
70 1 0.525061 0.688494 0.941251
206 1 0.823156 0.788417 0.847854
21 1 0.673368 0.747731 0.957718
163 1 0.501278 0.828633 0.907403
236 1 0.666741 0.849849 0.815385
37 1 0.600036 0.941711 0.946516
219 1 0.994939 0.776363 0.840432
200 1 0.773754 0.623908 0.994836
238 1 0.895915 0.924142 0.88614
31 1 0.751073 0.879273 0.958503
299 2 0.669989 0.512577 0.819097
199 1 0.489035 0.952881 0.809207
310 2 0.977003 0.849612 0.96849
ITEM: TIMESTEP
600000
ITEM: NUMBER OF ATOMS
360
ITEM: BOX BOUNDS pp pp pp
0.0000000000000000e+00 6.6943295008216896e+00
0.0000000000000000e+00 6.6943295008216896e+00
0.0000000000000000e+00 6.6943295008216896e+00
ITEM: ATOMS id type xs ys zs
138 1 0.0888167 0.111874 0.0920325
359 2 0.122478 0.220581 0.225786
102 1 0.409942 0.390717 0.0207353
99 1 0.310951 0.486058 0.0842129
146 1 0.277779 0.0175806 0.159682
87 1 0.251928 0.411765 0.242204
355 2 0.337749 0.188145 0.173765
100 1 0.257404 0.171543 0.0683194
37 1 0.408551 0.0929713 0.134063
117 1 0.442636 0.250802 0.10046
52 1 0.00788412 0.220808 0.179368
225 1 0.448738 0.404771 0.161493
323 2 0.366906 0.462201 0.242435
119 1 0.294342 0.308734 0.130817
287 1 0.144483 0.275768 0.0973895
289 2 0.041929 0.340847 0.0651727
127 1 0.153486 0.433205 0.112459
121 1 0.188088 0.0314924 0.00834814
66 1 0.125053 0.348259 0.25033
180 1 0.498155 0.149364 0.23801
345 2 0.222568 0.15635 0.361799
11 1 0.119492 0.0649041 0.399663
292 2 0.075541 0.215385 0.482609
233 1 0.404131 0.277218 0.249483
109 1 0.465619 0.489239 0.472983
20 1 0.0545449 0.213 0.33834
73 1 0.270106 0.0629893 0.429661
286 1 0.348168 0.203827 0.390644
172 1 0.343738 0.100143 0.284367
48 1 0.487155 0.137793 0.404278
339 2 0.484593 0.0306323 0.312701
164 1 0.248175 0.238152 0.256104
279 1 0.0386417 0.345971 0.444023
69 1 0.185667 0.268212 0.405911
253 1 0.16948 0.438251 0.373892
50 1 0.0342668 0.0761626 0.262787
326 2 0.286826 0.274051 0.48443
178 1 0.427345 0.325222 0.475225
246 1 0.328461 0.365431 0.362439
162 1 0.471615 0.414309 0.314036
1 1 0.291482 0.478334 0.46476
94 1 0.180629 0.0999633 0.24908
46 1 0.112244 0.0351597 0.705801
353 2 0.137007 0.12002 0.617605
155 1 0.0394887 0.100937 0.533913
337 2 0.337848 0.388756 0.555283
136 1 0.195872 0.0111235 0.544523
36 1 0.466496 0.245195 0.6071
63 1 0.21001 0.165457 0.513865
130 1 0.272945 0.0918443 0.65572
105 1 0.424918 0.118084 0.689316
78 1 0.463237 0.421326 0.609669
120 1 0.115714 0.253198 0.606184
104 1 0.203487 0.354005 0.698464
29 1 0.0738106 0.409829 0.59593
139 1 0.205188 0.367234 0.517575
161 1 0.253642 0.477683 0.618615
275 1 0.369081 0.135362 0.525677
81 1 0.357701 0.409764 0.711291
124 1 0.290361 0.253066 0.630802
153 1 0.0141789 0.164437 0.691871
192 1 0.103914 0.49933 0.718754
83 1 0.17233 0.188374 0.732381
243 1 0.0959277 0.0656969 0.893779
297 2 0.436183 0.484527 0.903484
212 1 0.456454 0.273127 0.758535
88 1 0.489576 0.412316 0.807035
184 1 0.35674 0.368064 0.864267
284 1 0.254309 0.111178 0.885161
152 1 0.420246 0.140608 0.85149
300 2 0.322837 0.0841803 0.771972
163 1 0.350456 0.063908 0.987522
216 1 0.151688 0.190862 0.969006
197 1 0.332715 0.222892 0.947838
228 1 0.262155 0.362003 0.994203
338 2 0.103934 0.203375 0.843135
258 1 0.221236 0.438525 0.820628
149 1 0.202195 0.294424 0.849784
10 1 0.0254328 0.452752 0.839739
262 1 0.102506 0.351043 0.966229
191 1 0.0605966 0.295495 0.777847
75 1 0.480221 0.27681 0.92941
210 1 0.317603 0.221457 0.777894
68 1 0.477084 0.143908 0.997456
316 2 0.0232261 0.107312 0.989205
298 2 0.481759 0.0358928 0.923618
115 1 0.00446676 0.236625 0.982119
74 1 0.0606722 0.677818 0.145278
283 1 0.185986 0.595709 0.0919868
218 1 0.149459 0.530399 0.225823
65 1 0.21091 0.746438 0.109172
255 1 0.477691 0.711037 0.14154
125 1 0.457499 0.554224 0.208422
240 1 0.353943 0.640988 0.0792852
45 1 0.322145 0.729156 0.219802
195 1 0.459297 0.53014 0.0137693
245 1 0.302262 0.577829 0.219015
249 1 0.122816 0.979311 0.165516
59 1 0.076607 0.834903 0.0580791
170 1 0.0945944 0.818985 0.224695
123 1 0.407227 0.956185 0.220381
181 1 0.242181 0.887141 0.0372112
77 1 0.484856 0.97199 0.050931
352 2 0.361732 0.963417 0.074316
9 1 0.379741 0.847697 0.1205
250 1 0.242587 0.8779 0.204209
350 2 0.441907 0.819264 0.237545
268 1 0.033634 0.533748 0.0831468
131 1 0.0253085 0.977015 0.0251809
70 1 0.4913 0.806575 0.00510068
171 1 0.182297 0.689267 0.243324
56 1 0.147974 0.595474 0.370106
357 2 0.191962 0.717619 0.437578
3 1 0.417621 0.868705 0.484073
8 1 0.0669725 0.735464 0.369055
348 2 0.0716751 0.625213 0.278039
89 1 0.389512 0.984178 0.378157
35 1 0.395103 0.623116 0.484424
193 1 0.293098 0.678087 0.368108
183 1 0.460375 0.694004 0.298359
17 1 0.375794 0.54766 0.345673
165 1 0.21733 0.964131 0.330657
224 1 0.0309568 0.955092 0.493636
209 1 0.0632404 0.94197 0.329512
261 1 0.204637 0.811398 0.344705
307 2 0.144389 0.931765 0.438663
260 1 0.136275 0.821554 0.493774
247 1 0.269953 0.90188 0.458719
293 2 0.387813 0.749369 0.432252
85 1 0.3634 0.833518 0.340962
296 2 0.061168 0.499988 0.326233
329 2 0.143323 0.587813 0.615535
82 1 0.0734581 0.666436 0.702492
156 1 0.228996 0.608605 0.714778
5 1 0.425405 0.84899 0.658198
42 1 0.0933691 0.657396 0.513017
135 1 0.25774 0.620338 0.549478
113 1 0.175788 0.735456 0.619784
40 1 0.0182254 0.560064 0.615681
269 1 0.263426 0.870575 0.612134
239 1 0.378031 0.587287 0.64536
177 1 0.449514 0.729338 0.557615
168 1 0.310496 0.749957 0.680318
203 1 0.0177384 0.804632 0.727945
236 1 0.355446 0.975097 0.709032
208 1 0.0930314 0.900281 0.628566
317 2 0.224824 0.970143 0.666442
272 1 0.172939 0.832003 0.738434
314 2 0.477009 0.579555 0.568145
202 1 0.141131 0.515187 0.506261
213 1 0.359553 0.997361 0.554045
57 1 0.45818 0.704032 0.737934
13 1 0.291978 0.764674 0.507071
356 2 0.301666 0.867674 0.745005
141 1 0.118988 0.596994 0.831539
158 1 0.211785 0.658463 0.936802
344 2 0.237428 0.56857 0.843645
211 1 0.391342 0.999075 0.847041
354 2 0.272571 0.97624 0.928355
49 1 0.333613 0.690414 0.829219
174 1 0.42927 0.67878 0.942982
111 1 0.314124 0.537531 0.933222
186 1 0.386536 0.535875 0.794479
336 2 0.153529 0.797211 0.967801
134 1 0.105201 0.77021 0.856317
4 1 0.137037 0.91527 0.92585
219 1 0.311148 0.7632 0.991309
270 1 0.0527765 0.935259 0.80648
182 1 0.261818 0.830791 0.869299
232 1 0.382793 0.906254 0.955505
187 1 0.409356 0.834721 0.820422
96 1 0.233073 0.98091 0.80726
206 1 0.0558092 0.691993 0.986591
331 2 0.467061 0.926386 0.760732
6 1 0.149859 0.509166 0.964114