ITEM: TIMESTEP
0
ITEM: NUMBER OF ATOMS
360
ITEM: BOX BOUNDS pp pp pp
0.0000000000000000e+00 6.6943295008216896e+00
0.0000000000000000e+00 6.6943295008216896e+00
0.0000000000000000e+00 6.6943295008216896e+00
ITEM: ATOMS id type xs ys zs
234 1 0.100598 0.231115 0.145583
127 1 0.178808 0.0486873 0.170295
53 1 0.0518164 0.0597584 0.0619158
58 1 0.210832 0.132361 0.0687967
242 1 0.0396022 0.120515 0.192321
231 1 0.0102114 0.219254 0.0309312
126 1 0.208679 0.224506 0.227041
228 1 0.396712 0.163494 0.0422313
232 1 0.491292 0.23885 0.095335
134 1 0.286593 0.125079 0.176883
331 2 0.340783 0.224672 0.160434
322 2 0.309216 0.00361242 0.11597
210 1 0.461805 0.0721943 0.164732
183 1 0.439876 0.194238 0.213629
96 1 0.24647 0.348919 0.0375801
316 2 0.122436 0.432346 0.149135
15 1 0.00468337 0.335779 0.149127
271 1 0.104832 0.346214 0.231352
59 1 0.134156 0.257231 0.00801272
125 1 0.0685257 0.425317 0.0570636
164 1 0.36858 0.316729 0.0818415
324 2 0.289616 0.401265 0.128401
274 1 0.450447 0.435798 0.073209
220 1 0.254522 0.487057 0.0730027
198 1 0.0373906 0.0570685 0.494244
104 1 0.219823 0.171021 0.447835
354 2 0.177366 0.0497926 0.360346
298 2 0.0962272 0.141509 0.292932
177 1 0.175928 0.014876 0.460854
233 1 0.37347 0.130039 0.343077
111 1 0.347944 0.203493 0.453919
321 2 0.275991 0.0589365 0.463858
57 1 0.411384 0.0323912 0.442365
345 2 0.251029 0.101669 0.277695
211 1 0.298816 0.003229 0.281685
273 1 0.0882681 0.455689 0.494082
91 1 0.165679 0.448243 0.352498
61 1 0.181705 0.294125 0.337379
311 2 0.119121 0.250758 0.439865
119 1 0.0521921 0.275125 0.339305
199 1 0.0567269 0.468734 0.258604
309 2 0.252371 0.371951 0.453606
107 1 0.279283 0.46748 0.446504
305 2 0.283873 0.320525 0.256229
73 1 0.279099 0.435796 0.328027
113 1 0.389339 0.373689 0.253206
37 1 0.444999 0.409584 0.396823
103 1 0.349371 0.270818 0.343467
153 1 0.0461235 0.20537 0.675654
83 1 0.0438526 0.177577 0.521366
124 1 0.144027 0.0598475 0.630285
351 2 0.14171 0.166853 0.576478
139 1 0.212117 0.246539 0.66523
200 1 0.00307702 0.059053 0.611855
290 2 0.0157753 0.0698544 0.730394
114 1 0.291129 0.158585 0.591096
71 1 0.486674 0.221467 0.645972
259 1 0.441809 0.140455 0.520944
239 1 0.444356 0.032323 0.634875
337 2 0.251746 0.058263 0.593832
246 1 0.2728 0.0779165 0.710486
312 2 0.335994 0.198566 0.722575
270 1 0.45902 0.112536 0.745074
297 2 0.112604 0.437569 0.644139
261 1 0.119188 0.332552 0.513138
229 1 0.0740058 0.341946 0.680285
165 1 0.205587 0.494294 0.692985
288 1 0.276514 0.306544 0.533901
9 1 0.254462 0.351104 0.688352
40 1 0.402351 0.341175 0.690159
178 1 0.45094 0.42383 0.541807
25 1 0.320809 0.428503 0.614599
293 2 0.419005 0.310942 0.554786
347 2 0.0734322 0.0896627 0.906985
92 1 0.19566 0.106602 0.932186
189 1 0.131842 0.248711 0.767532
108 1 0.121841 0.0697204 0.806167
24 1 0.333164 0.204271 0.948179
283 1 0.490224 0.0530623 0.961178
49 1 0.496214 0.248605 0.762082
279 1 0.25129 0.180145 0.831176
341 2 0.276286 0.0744183 0.838361
263 1 0.419258 0.159561 0.876939
278 1 0.372368 0.00346312 0.783182
47 1 0.32901 0.0522295 0.995401
78 1 0.0339025 0.285782 0.888008
69 1 0.217799 0.289999 0.892171
346 2 0.115159 0.367131 0.962509
55 1 0.109866 0.460705 0.77901
216 1 0.353784 0.39938 0.9647
287 1 0.352242 0.285826 0.804636
13 1 0.414352 0.403121 0.857623
145 1 0.319854 0.454106 0.780534
141 1 0.470402 0.300095 0.975176
160 1 0.187759 0.702969 0.147591
310 2 0.10127 0.581923 0.217355
151 1 0.0809218 0.733471 0.060901
168 1 0.204743 0.535932 0.225208
213 1 0.150726 0.592898 0.105632
128 1 0.202986 0.673869 0.00248747
301 2 0.330695 0.627162 0.0111332
155 1 0.454658 0.683986 0.0771283
203 1 0.488828 0.661317 0.228179
64 1 0.317758 0.660041 0.150686
282 1 0.379668 0.531128 0.139841
332 2 0.117879 0.805926 0.19318
157 1 0.202594 0.999351 0.0420343
77 1 0.0751782 0.938612 0.102861
327 2 0.00493046 0.801716 0.0146347
342 2 0.189263 0.81847 0.100752
214 1 0.469677 0.871769 0.098292
38 1 0.312865 0.893916 0.036941
109 1 0.269453 0.80771 0.167578
52 1 0.400141 0.925227 0.198016
358 2 0.367264 0.832678 0.128024
303 2 0.19854 0.626923 0.429812
318 2 0.15407 0.67173 0.269145
169 1 0.073404 0.638758 0.426841
302 2 0.0273002 0.69 0.274552
74 1 0.00540511 0.528378 0.397353
161 1 0.265846 0.568097 0.362081
174 1 0.387962 0.619708 0.287497
245 1 0.305014 0.698418 0.340347
304 2 0.487319 0.505678 0.411351
267 1 0.406057 0.577721 0.428227
42 1 0.430575 0.72313 0.36493
219 1 0.431583 0.502298 0.287187
90 1 0.129744 0.778999 0.334449
120 1 0.0895523 0.97497 0.385392
184 1 0.156425 0.910828 0.270673
146 1 0.0742139 0.854458 0.494412
159 1 0.21717 0.800896 0.453083
43 1 0.00334532 0.890341 0.264717
323 2 0.24028 0.923819 0.498424
97 1 0.25105 0.813012 0.300965
335 2 0.366856 0.827028 0.394099
121 1 0.40028 0.953329 0.343197
112 1 0.334391 0.850778 0.489871
86 1 0.0726817 0.615439 0.590723
72 1 0.223624 0.588801 0.55362
1 1 0.00504094 0.505011 0.66755
320 2 0.182472 0.592602 0.687847
149 1 0.167095 0.72804 0.691612
308 2 0.0283509 0.539175 0.507484
10 1 0.459502 0.505574 0.73046
336 2 0.254387 0.692128 0.521486
75 1 0.384998 0.594071 0.685363
268 1 0.28745 0.7145 0.652166
265 1 0.378161 0.551352 0.557675
51 1 0.395482 0.687687 0.525754
243 1 0.164975 0.849906 0.616721
313 2 0.244497 0.938011 0.673786
188 1 0.0440896 0.791727 0.725442
115 1 0.098756 0.947788 0.69903
30 1 0.457254 0.935196 0.51141
325 2 0.338334 0.870786 0.599823
191 1 0.339968 0.986224 0.550744
280 1 0.359398 0.875543 0.704542
236 1 0.428823 0.781918 0.59741
286 1 0.091677 0.727892 0.854928
167 1 0.127028 0.548407 0.939271
182 1 0.231882 0.708077 0.854734
89 1 0.135022 0.617738 0.826943
317 2 0.483454 0.675312 0.765321
171 1 0.267358 0.500437 0.903096
16 1 0.437443 0.680207 0.957722
179 1 0.428216 0.628547 0.834058
307 2 0.388172 0.522337 0.886628
95 1 0.271319 0.597389 0.79034
85 1 0.327823 0.727979 0.986185
253 1 0.362092 0.529139 0.987333
359 2 0.498814 0.507094 0.90251
272 1 0.497413 0.545006 0.998186
131 1 0.172928 0.810074 0.934317
152 1 0.0943073 0.955552 0.864317
48 1 0.159265 0.847454 0.782859
352 2 0.0618216 0.991571 0.980947
28 1 0.212901 0.958294 0.791528
19 1 0.226364 0.93871 0.909974
218 1 0.0221049 0.844001 0.883587
344 2 0.323034 0.857705 0.93969
123 1 0.457163 0.883013 0.835909
227 1 0.30256 0.836031 0.834416
54 1 0.428742 0.933127 0.959033
87 1 0.441785 0.773983 0.752481
105 1 0.681126 0.223992 0.0686341
247 1 0.74746 0.0849601 0.103506
349 2 0.579751 0.141299 0.185493
130 1 0.579625 0.137529 0.0457691
240 1 0.846507 0.193371 0.0427776
60 1 0.943533 0.207961 0.1487
162 1 0.889995 0.0257862 0.0964605
314 2 0.842485 0.0899531 0.166186
300 2 0.963628 0.105239 0.0127825
241 1 0.636786 0.467528 0.0245348
122 1 0.639259 0.264997 0.204131
360 2 0.527063 0.391335 0.171217
17 1 0.617607 0.389739 0.236616
156 1 0.606394 0.337551 0.0571339
299 2 0.539487 0.493073 0.222507
256 1 0.703618 0.480755 0.175724
39 1 0.856523 0.435304 0.226863
215 1 0.794578 0.296728 0.113342
34 1 0.948366 0.415188 0.0353627
46 1 0.768637 0.415407 0.0744703
62 1 0.637405 0.185512 0.320885
226 1 0.723914 0.133376 0.251778
101 1 0.547498 0.088921 0.414706
102 1 0.501297 0.215297 0.340742
106 1 0.66569 0.0270037 0.34117
275 1 0.705323 0.101945 0.462221
209 1 0.559354 0.082335 0.287796
294 2 0.691279 0.226669 0.49238
4 1 0.917897 0.131952 0.252417
117 1 0.794392 0.181038 0.369993
68 1 0.832406 0.0568603 0.323749
175 1 0.894338 0.142918 0.446483
340 2 0.970661 0.00773178 0.280168
14 1 0.986638 0.169319 0.368803
84 1 0.510391 0.327897 0.291914
249 1 0.686268 0.431148 0.437824
264 1 0.635014 0.331328 0.376362
230 1 0.570357 0.468477 0.344371
201 1 0.880025 0.299914 0.400026
205 1 0.835688 0.375289 0.483335
132 1 0.996738 0.408158 0.376627
88 1 0.755182 0.317808 0.258127
266 1 0.980165 0.313496 0.497761
45 1 0.819327 0.445808 0.356732
70 1 0.881002 0.254235 0.261248
225 1 0.608284 0.0478895 0.687048
110 1 0.61061 0.181113 0.661014
193 1 0.55031 0.0897504 0.575073
12 1 0.790548 0.0317236 0.579599
135 1 0.888558 0.0125342 0.731398
284 1 0.909643 0.144943 0.72238
79 1 0.750397 0.0686965 0.701216
133 1 0.761772 0.167065 0.594082
289 2 0.953323 0.173445 0.601846
292 2 0.67607 0.4226 0.694082
202 1 0.610264 0.460875 0.589831
221 1 0.560184 0.350235 0.700017
22 1 0.679899 0.30671 0.591016
66 1 0.556894 0.278971 0.50293
94 1 0.842018 0.271705 0.558291
2 1 0.865148 0.385415 0.730604
212 1 0.970654 0.284222 0.615225
192 1 0.903191 0.48907 0.579635
56 1 0.77366 0.391837 0.608302
204 1 0.821646 0.258237 0.689552
306 2 0.928393 0.369523 0.586147
238 1 0.543147 0.203241 0.929031
148 1 0.700501 0.192527 0.788707
208 1 0.664534 0.14955 0.923768
33 1 0.548283 0.0774722 0.827107
170 1 0.802158 0.0889768 0.969702
154 1 0.940918 0.177327 0.877902
6 1 0.961518 0.0529775 0.854566
262 1 0.765312 0.234145 0.908521
81 1 0.830133 0.124682 0.850871
190 1 0.65295 0.306665 0.765939
3 1 0.557422 0.419448 0.869051
186 1 0.66542 0.325732 0.903294
173 1 0.981064 0.268789 0.767394
350 2 0.798007 0.312738 0.840666
143 1 0.930618 0.361443 0.856481
357 2 0.935952 0.455657 0.783004
244 1 0.843516 0.326191 0.943445
258 1 0.790321 0.498561 0.860429
31 1 0.576719 0.574904 0.135336
44 1 0.670978 0.693131 0.176404
195 1 0.69762 0.574792 0.0800652
21 1 0.780967 0.732938 0.0743411
333 2 0.898037 0.734456 0.149178
338 2 0.750967 0.597284 0.245845
65 1 0.837566 0.538643 0.00193116
26 1 0.834062 0.704934 0.237015
281 1 0.96982 0.596831 0.228261
63 1 0.95367 0.690632 0.0546634
295 2 0.891142 0.620339 0.153134
18 1 0.962365 0.555258 0.0363152
180 1 0.558668 0.792286 0.215654
29 1 0.582043 0.974358 0.123472
136 1 0.601941 0.782845 0.0577815
251 1 0.723653 0.86714 0.154112
27 1 0.717723 0.974422 0.208061
257 1 0.706293 0.937902 0.033763
67 1 0.855822 0.971903 0.213358
326 2 0.981743 0.917906 0.00782264
185 1 0.881319 0.820324 0.094996
296 2 0.985603 0.904683 0.147775
217 1 0.996692 0.790334 0.161002
248 1 0.591244 0.593424 0.317173
194 1 0.733918 0.673337 0.323068
166 1 0.720566 0.513587 0.326163
144 1 0.523481 0.683657 0.441143
172 1 0.665425 0.671496 0.444057
196 1 0.692811 0.544122 0.459255
7 1 0.548287 0.559926 0.491431
138 1 0.921024 0.676406 0.344054
235 1 0.962674 0.698816 0.465421
163 1 0.815473 0.513785 0.490618
315 2 0.814996 0.555264 0.393457
11 1 0.62615 0.878281 0.310491
353 2 0.598876 0.85952 0.425081
8 1 0.542886 0.952249 0.412574
129 1 0.72893 0.791315 0.253903
93 1 0.686745 0.799338 0.381616
36 1 0.738888 0.952372 0.439967
237 1 0.517021 0.82329 0.462152
147 1 0.941719 0.997172 0.392039
255 1 0.901392 0.87575 0.432375
5 1 0.807336 0.878063 0.306397
348 2 0.966962 0.762022 0.353598
224 1 0.826412 0.752661 0.413064
150 1 0.619983 0.698895 0.595184
339 2 0.530569 0.747598 0.64716
223 1 0.700798 0.573678 0.60463
285 1 0.70105 0.688727 0.725742
328 2 0.540116 0.523817 0.638459
80 1 0.521684 0.629597 0.660405
140 1 0.768223 0.549041 0.735809
329 2 0.778033 0.668781 0.625248
355 2 0.851426 0.668395 0.74364
187 1 0.943102 0.640883 0.64127
330 2 0.891249 0.602491 0.508337
334 2 0.765589 0.688688 0.505185
137 1 0.9317 0.743911 0.729413
100 1 0.601226 0.92824 0.62001
254 1 0.69353 0.840864 0.701706
260 1 0.664649 0.812851 0.52257
181 1 0.643125 0.986372 0.516647
50 1 0.519225 0.848278 0.687609
158 1 0.89173 0.992483 0.511569
20 1 0.906857 0.787337 0.565689
207 1 0.830289 0.892982 0.590406
250 1 0.773571 0.770173 0.609587
142 1 0.960059 0.885941 0.72337
32 1 0.97663 0.920571 0.587014
118 1 0.559491 0.72069 0.921933
319 2 0.578149 0.698096 0.787914
277 1 0.559039 0.584918 0.843557
291 2 0.674325 0.511679 0.917044
82 1 0.671081 0.722701 0.848915
222 1 0.645639 0.536531 0.752837
206 1 0.942566 0.670901 0.912354
252 1 0.894168 0.56475 0.766902
197 1 0.966655 0.513238 0.886963
76 1 0.715552 0.97167 0.772357
276 1 0.681854 0.832379 0.951095
116 1 0.595366 0.850681 0.818014
176 1 0.593012 0.975332 0.93285
99 1 0.534396 0.838759 0.957692
269 1 0.518809 0.967804 0.751298
343 2 0.89805 0.846559 0.991744
35 1 0.815953 0.769404 0.799799
356 2 0.967305 0.97518 0.918679
41 1 0.883826 0.883556 0.843612
98 1 0.79785 0.98632 0.90023
23 1 0.796506 0.851953 0.940391
ITEM: TIMESTEP
10000
ITEM: NUMBER OF ATOMS
360
ITEM: BOX BOUNDS pp pp pp
0.0000000000000000e+00 6.6943295008216896e+00
0.0000000000000000e+00 6.6943295008216896e+00
0.0000000000000000e+00 6.6943295008216896e+00
ITEM: ATOMS id type xs ys zs
60 1 0.16609 0.113409 0.100035
216 1 0.23412 0.24761 0.117596
229 1 0.107589 0.24113 0.013091
345 2 0.19387 0.139578 0.214157
6 1 0.0441895 0.210998 0.15131
322 2 0.465844 0.0350126 0.109288
228 1 0.42317 0.0391453 0.216287
58 1 0.433687 0.193137 0.126448
127 1 0.321331 0.0982995 0.0186649
331 2 0.315626 0.0958 0.14468
134 1 0.319039 0.162328 0.243776
305 2 0.229434 0.30797 0.00342717
18 1 0.181588 0.407571 0.156907
347 2 0.0760306 0.344641 0.0917674
234 1 0.0287298 0.379823 0.206779
310 2 0.14655 0.483339 0.249183
55 1 0.135775 0.420188 0.000357512
95 1 0.480527 0.354368 0.0906056
301 2 0.425089 0.440985 0.13755
284 1 0.353751 0.287351 0.0125339
113 1 0.320238 0.467975 0.216327
92 1 0.316376 0.449904 0.0733612
324 2 0.341429 0.327154 0.129179
220 1 0.416718 0.304534 0.226543
96 1 0.269455 0.320155 0.245096
24 1 0.104768 0.246682 0.424709
111 1 0.018272 0.105143 0.407227
53 1 0.0793429 0.0965703 0.259778
132 1 0.164671 0.224473 0.290849
102 1 0.210086 0.122741 0.38499
321 2 0.330206 0.0504538 0.311789
360 2 0.421897 0.20342 0.304069
37 1 0.365921 0.138347 0.394383
309 2 0.281922 0.246523 0.365794
335 2 0.285513 0.0952712 0.482573
230 1 0.473737 0.245167 0.43555
168 1 0.131872 0.365182 0.31569
175 1 0.0215679 0.260709 0.298169
213 1 0.238743 0.473981 0.335309
298 2 0.217301 0.343937 0.402197
119 1 0.0237077 0.389652 0.480719
165 1 0.361541 0.34261 0.364692
304 2 0.420725 0.424815 0.275326
91 1 0.303616 0.449573 0.45934
259 1 0.25004 0.255114 0.490632
114 1 0.0820998 0.185474 0.701807
139 1 0.175656 0.0279808 0.69046
164 1 0.241507 0.157122 0.601207
311 2 0.0273052 0.207331 0.525464
211 1 0.210795 0.00432761 0.544678
14 1 0.0951289 0.11314 0.563958
320 2 0.446603 0.222289 0.647573
178 1 0.398014 0.145075 0.55072
40 1 0.471267 0.0207893 0.733122
145 1 0.366106 0.146083 0.712889
9 1 0.238919 0.274044 0.723786
273 1 0.181039 0.385607 0.515497
72 1 0.161074 0.396784 0.680908
1 1 0.0188836 0.39716 0.624507
36 1 0.122162 0.262776 0.584666
337 2 0.0104745 0.280245 0.658666
3 1 0.406459 0.355607 0.526901
128 1 0.463993 0.471412 0.635607
288 1 0.385467 0.33883 0.682543
265 1 0.311374 0.443303 0.609832
319 2 0.329038 0.271548 0.581107
293 2 0.285802 0.389221 0.745377
198 1 0.188571 0.136124 0.789164
28 1 0.0422122 0.195357 0.859902
47 1 0.143057 0.103248 0.940909
153 1 0.0619096 0.0539982 0.811596
312 2 0.27384 0.0848194 0.894127
278 1 0.405899 0.0862347 0.848349
283 1 0.258793 0.204346 0.921981
359 2 0.291593 0.200376 0.798388
214 1 0.471774 0.0833506 0.989074
253 1 0.390761 0.239245 0.873539
238 1 0.491697 0.233571 0.996292
279 1 0.300419 0.00625644 0.779816
246 1 0.158781 0.290375 0.878914
357 2 0.0511148 0.354345 0.916403
197 1 0.0311591 0.482459 0.912093
266 1 0.0514163 0.328981 0.767449
89 1 0.1882 0.446581 0.821791
86 1 0.0582534 0.488995 0.759285
261 1 0.296093 0.363647 0.87966
69 1 0.452375 0.369864 0.933468
16 1 0.475203 0.344997 0.785413
171 1 0.371326 0.47053 0.802572
151 1 0.204979 0.55717 0.0442176
64 1 0.230423 0.584563 0.206916
316 2 0.106929 0.662203 0.112977
199 1 0.0813154 0.522771 0.129827
82 1 0.245774 0.701732 0.107228
281 1 0.0176972 0.734691 0.0606137
125 1 0.056617 0.590485 0.0021797
155 1 0.350063 0.596926 0.0974282
136 1 0.479605 0.581258 0.186779
99 1 0.431017 0.745927 0.184633
286 1 0.305739 0.732965 0.235818
272 1 0.456816 0.521841 0.00348602
342 2 0.182177 0.998057 0.135812
162 1 0.236033 0.849904 0.160232
341 2 0.239212 0.811489 0.0377047
41 1 0.104072 0.84533 0.0685427
257 1 0.0765556 0.943358 0.205687
152 1 0.226173 0.945129 0.0157831
126 1 0.0763683 0.997827 0.041952
327 2 0.035723 0.791197 0.167628
354 2 0.15879 0.861369 0.249412
157 1 0.340879 0.970125 0.11066
252 1 0.361206 0.798336 0.0608729
183 1 0.27069 0.988576 0.240828
38 1 0.423721 0.883588 0.183712
263 1 0.457585 0.891953 0.0243785
51 1 0.120087 0.596746 0.304486
317 2 0.01908 0.616677 0.453012
245 1 0.0700044 0.721816 0.422666
109 1 0.208502 0.73793 0.362405
326 2 0.0137013 0.676018 0.311041
45 1 0.000630973 0.500204 0.274324
205 1 0.107526 0.505891 0.418129
328 2 0.241287 0.741873 0.488523
180 1 0.361649 0.711232 0.364652
338 2 0.396538 0.613673 0.445461
107 1 0.408061 0.543413 0.33202
282 1 0.268867 0.606019 0.404082
7 1 0.435738 0.501588 0.487078
62 1 0.496891 0.664082 0.321092
336 2 0.364361 0.627659 0.251528
255 1 0.053846 0.875297 0.355122
242 1 0.162636 0.984247 0.337972
112 1 0.173181 0.862257 0.441946
233 1 0.0906456 0.999332 0.470268
271 1 0.110958 0.752778 0.250376
77 1 0.266454 0.863919 0.31343
323 2 0.452021 0.809313 0.362713
184 1 0.284344 0.99234 0.418375
144 1 0.341481 0.842146 0.458008
174 1 0.491402 0.771683 0.484774
172 1 0.403542 0.922821 0.320472
103 1 0.422147 0.996865 0.478029
120 1 0.0325335 0.707698 0.577331
191 1 0.232642 0.691022 0.629749
227 1 0.217233 0.554584 0.706848
75 1 0.0770754 0.617092 0.696985
237 1 0.148347 0.644959 0.51998
25 1 0.11161 0.511657 0.572464
285 1 0.488427 0.61745 0.617039
182 1 0.285418 0.566689 0.554535
179 1 0.365364 0.589111 0.690051
236 1 0.34613 0.696766 0.528102
90 1 0.123936 0.766358 0.684971
158 1 0.120982 0.904682 0.625974
225 1 0.0326321 0.859671 0.509329
325 2 0.142257 0.783431 0.545928
104 1 0.0168806 0.996161 0.650203
303 2 0.43474 0.899678 0.566773
57 1 0.359618 0.994961 0.625358
177 1 0.252286 0.864696 0.566307
123 1 0.426106 0.782352 0.61716
313 2 0.288166 0.783426 0.692588
239 1 0.366474 0.874724 0.73816
193 1 0.497864 0.878641 0.69297
167 1 0.145448 0.711052 0.992869
149 1 0.185437 0.594507 0.901341
243 1 0.241389 0.706544 0.800093
308 2 0.0792663 0.584117 0.837068
188 1 0.101711 0.710024 0.825352
10 1 0.381984 0.72125 0.785566
118 1 0.404955 0.591557 0.881916
85 1 0.300071 0.678924 0.947895
307 2 0.270485 0.560982 0.823883
189 1 0.301401 0.512928 0.929858
344 2 0.424642 0.657788 0.990236
333 2 0.0445623 0.754201 0.916939
218 1 0.16493 0.820093 0.916859
268 1 0.193839 0.9647 0.875294
32 1 0.0604785 0.890031 0.784471
353 2 0.0571867 0.894952 0.969701
270 1 0.208472 0.886263 0.756447
280 1 0.358686 0.977797 0.936969
131 1 0.443968 0.762663 0.929679
48 1 0.320856 0.834084 0.872466
19 1 0.460197 0.909055 0.85766
209 1 0.570533 0.130957 0.143413
121 1 0.586576 0.000307833 0.213782
226 1 0.716484 0.062507 0.113432
231 1 0.730512 0.237472 0.165117
247 1 0.740525 0.180884 0.020182
147 1 0.828043 0.0964015 0.216853
70 1 0.866963 0.181522 0.077318
67 1 0.965502 0.0589877 0.143272
232 1 0.623189 0.279204 0.0435278
274 1 0.703689 0.402612 0.141826
101 1 0.572282 0.27671 0.180693
130 1 0.538426 0.416091 0.213743
4 1 0.895657 0.278063 0.219694
240 1 0.8194 0.490316 0.153277
59 1 0.967152 0.300009 0.0445898
78 1 0.828646 0.341352 0.0877541
346 2 0.976577 0.426465 0.0808217
329 2 0.898413 0.40122 0.21445
12 1 0.675589 0.179456 0.418689
110 1 0.541161 0.119416 0.492004
275 1 0.709671 0.149214 0.282329
202 1 0.542015 0.174604 0.317243
163 1 0.6483 0.0324638 0.433183
11 1 0.500268 0.0386874 0.35056
260 1 0.874556 0.0889396 0.371469
350 2 0.78914 0.247909 0.42576
94 1 0.927968 0.227272 0.399436
224 1 0.750996 0.017097 0.314718
348 2 0.948135 0.140464 0.256213
68 1 0.967627 0.00516679 0.280486
221 1 0.536007 0.389453 0.479646
133 1 0.623516 0.311492 0.377434
249 1 0.671572 0.450599 0.419922
84 1 0.502708 0.349761 0.336456
294 2 0.666103 0.312919 0.254883
306 2 0.974997 0.49364 0.390999
117 1 0.771499 0.446146 0.299741
100 1 0.783316 0.277826 0.308191
201 1 0.842946 0.462339 0.430449
106 1 0.936249 0.365545 0.341831
349 2 0.776068 0.364699 0.386049
49 1 0.669906 0.0687063 0.5976
190 1 0.534768 0.150572 0.652555
154 1 0.734118 0.221076 0.622247
98 1 0.660538 0.130619 0.726175
79 1 0.836892 0.168895 0.519251
204 1 0.967958 0.150442 0.618313
314 2 0.923682 0.0842637 0.722441
135 1 0.82838 0.0918472 0.644898
351 2 0.95006 0.0567063 0.531702
13 1 0.595351 0.429096 0.740806
22 1 0.618564 0.263176 0.521652
56 1 0.740185 0.327349 0.508678
195 1 0.533702 0.311563 0.627545
223 1 0.735781 0.483457 0.555441
334 2 0.647354 0.394587 0.586939
116 1 0.647195 0.282629 0.738761
61 1 0.902703 0.313996 0.509911
46 1 0.754268 0.378346 0.692233
222 1 0.870442 0.278127 0.646582
80 1 0.867943 0.438066 0.593703
297 2 0.94952 0.491242 0.692604
33 1 0.696502 0.231292 0.870434
176 1 0.700992 0.0017117 0.964742
287 1 0.613269 0.135357 0.97123
54 1 0.551781 0.0584328 0.85177
141 1 0.52412 0.195585 0.801607
300 2 0.70112 0.00686438 0.841907
115 1 0.802571 0.150716 0.780176
289 2 0.9472 0.0756633 0.854309
76 1 0.827692 0.0373164 0.876398
290 2 0.815548 0.088473 0.988309
81 1 0.860379 0.187714 0.920143
108 1 0.929781 0.213828 0.761941
23 1 0.97525 0.11159 0.990656
355 2 0.708762 0.483429 0.767333
148 1 0.582433 0.324546 0.885384
31 1 0.503701 0.47394 0.859179
215 1 0.731419 0.33672 0.966265
186 1 0.654394 0.453855 0.92496
358 2 0.554172 0.413973 0.994874
173 1 0.943756 0.30829 0.863381
65 1 0.792851 0.447264 0.86062
2 1 0.904074 0.428207 0.959161
262 1 0.809965 0.310026 0.809066
291 2 0.848536 0.320184 0.943374
156 1 0.912103 0.395988 0.752682
299 2 0.536838 0.599534 0.0787997
185 1 0.670884 0.649304 0.0421382
17 1 0.611476 0.504801 0.0581141
26 1 0.536444 0.715152 0.0548289
264 1 0.605822 0.674387 0.182147
105 1 0.64509 0.541183 0.231195
122 1 0.804986 0.635393 0.118536
318 2 0.871052 0.550909 0.245345
27 1 0.921274 0.555327 0.0617245
97 1 0.984704 0.611868 0.186501
256 1 0.701109 0.775246 0.158944
251 1 0.720275 0.904968 0.0804706
129 1 0.562149 0.856807 0.121283
210 1 0.57396 0.996272 0.0672742
340 2 0.853048 0.847146 0.0259974
39 1 0.851559 0.776825 0.12706
138 1 0.8311 0.933896 0.205521
160 1 0.763219 0.760118 0.0110707
5 1 0.9647 0.878252 0.11443
170 1 0.86222 0.988245 0.0595585
203 1 0.642601 0.632264 0.346319
219 1 0.529542 0.625097 0.472999
267 1 0.541478 0.518105 0.353862
140 1 0.766993 0.730202 0.391453
146 1 0.910241 0.593536 0.358078
166 1 0.768228 0.637508 0.262894
332 2 0.886542 0.676504 0.259078
192 1 0.775488 0.58874 0.440874
137 1 0.902914 0.67202 0.498622
74 1 0.623908 0.769245 0.401191
302 2 0.640031 0.757383 0.259265
181 1 0.562937 0.913276 0.433831
42 1 0.73989 0.843255 0.493492
194 1 0.676881 0.896207 0.251784
295 2 0.693603 0.915147 0.382434
352 2 0.611569 0.979225 0.33041
73 1 0.538023 0.834739 0.269869
161 1 0.809207 0.789017 0.262057
43 1 0.914784 0.750157 0.36181
142 1 0.955696 0.977822 0.428202
187 1 0.826269 0.894296 0.363317
71 1 0.781703 0.986545 0.489891
250 1 0.886837 0.837351 0.495613
217 1 0.947203 0.842232 0.254181
258 1 0.638265 0.569355 0.697016
248 1 0.58622 0.514567 0.547021
50 1 0.581785 0.722331 0.675314
93 1 0.656369 0.640846 0.533728
206 1 0.804801 0.680253 0.745246
292 2 0.772359 0.719008 0.521071
159 1 0.794319 0.635061 0.609618
235 1 0.937869 0.608605 0.652416
169 1 0.954665 0.524226 0.518918
244 1 0.809906 0.520118 0.712024
66 1 0.740778 0.909307 0.621936
8 1 0.529792 0.981348 0.581553
330 2 0.642825 0.961844 0.532052
20 1 0.736041 0.762359 0.640004
44 1 0.608549 0.976284 0.709822
196 1 0.613909 0.829408 0.566717
30 1 0.781307 0.983229 0.739926
150 1 0.845327 0.833602 0.686623
339 2 0.892174 0.766907 0.601765
83 1 0.866857 0.958405 0.605554
124 1 0.985305 0.85233 0.664825
254 1 0.666511 0.576875 0.84371
241 1 0.547554 0.640938 0.914223
21 1 0.691307 0.712702 0.893518
87 1 0.508925 0.604918 0.769788
212 1 0.930313 0.569425 0.793425
315 2 0.895737 0.545405 0.925225
15 1 0.801889 0.601911 0.871752
34 1 0.978796 0.642701 0.894219
200 1 0.967526 0.728915 0.757009
88 1 0.766336 0.522068 0.991108
143 1 0.884577 0.688832 0.99486
356 2 0.534547 0.958035 0.949208
52 1 0.596424 0.819765 0.956919
277 1 0.572302 0.775585 0.807183
35 1 0.731733 0.825919 0.788024
269 1 0.608109 0.918706 0.849523
207 1 0.932803 0.962234 0.768211
343 2 0.942699 0.825472 0.851346
276 1 0.806962 0.886619 0.921139
208 1 0.982469 0.965295 0.911188
29 1 0.950897 0.814729 0.96895
296 2 0.834258 0.895747 0.810087
63 1 0.849359 0.758184 0.866001
